------------------------------------------------------------
          Invoking FHI-aims ...

          When using FHI-aims, please cite the following reference:

            Volker Blum, Ralf Gehrke, Felix Hanke, Paula Havu,
            Ville Havu, Xinguo Ren, Karsten Reuter, and Matthias Scheffler,
            'Ab Initio Molecular Simulations with Numeric Atom-Centered Orbitals',
            Computer Physics Communications 180, 2175-2196 (2009)

          In addition, many other developments in FHI-aims are likely important for
          your particular application. A partial list of references is given at the end of
          this file. Thank you for giving credit to the authors of these developments.

          For any questions about FHI-aims, please visit our slack channel at

            https://fhi-aims.slack.com

          and our main development and support site at

            https://aims-git.rz-berlin.mpg.de .

          The latter site, in particular, has a wiki to collect information, as well
          as an issue tracker to log discussions, suggest improvements, and report issues
          or bugs. https://aims-git.rz-berlin.mpg.de is also the main development site
          of the project and all new and updated code versions can be obtained there.
          Please send an email to aims-coordinators@fhi-berlin.mpg.de and we will add
          you to these sites. They are for you and everyone is welcome there.

------------------------------------------------------------



  Date     :  20220930, Time     :  125203.599
  Time zero on CPU 1             :   0.398505000000000E+00  s.
  Internal wall clock time zero  :           433774323.599  s.

  FHI-aims created a unique identifier for this run for later identification
  aims_uuid : 88A9EDFA-AD2F-44FE-A490-54F78FEF150D

  Build configuration of the current instance of FHI-aims
  -------------------------------------------------------
  FHI-aims version      : 220117
  Commit number         : 0c0e6afe2
  CMake host system     : Linux-5.3.18-24.99-default
  CMake version         : 3.22.0
  Fortran compiler      : /mpcdf/soft/SLE_15/packages/x86_64/intel_oneapi/2021.4/mpi/2021.4.0/bin/mpiifort (Intel) version 2021.4.0.20210910
  Fortran compiler flags: -O3 -ip -fp-model precise
  C compiler            : /mpcdf/soft/SLE_15/packages/x86_64/intel/2021.4.0/bin/icc (Intel) version 2021.4.0.20210910
  C compiler flags      : -O3 -ip -fp-model precise
  C++ compiler          : /mpcdf/soft/SLE_15/packages/x86_64/intel/2021.4.0/bin/icpc (Intel) version 2021.4.0.20210910
  C++ compiler flags    : -O3 -ip -fp-model precise
  Using MPI
  Using ScaLAPACK
  Using LibXC
  Using i-PI
  Using RLSY
  Linking against: /mpcdf/soft/SLE_15/packages/x86_64/intel_oneapi/2021.4/mkl/latest/lib/intel64/libmkl_intel_lp64.so
                   /mpcdf/soft/SLE_15/packages/x86_64/intel_oneapi/2021.4/mkl/latest/lib/intel64/libmkl_sequential.so
                   /mpcdf/soft/SLE_15/packages/x86_64/intel_oneapi/2021.4/mkl/latest/lib/intel64/libmkl_core.so
                   /mpcdf/soft/SLE_15/packages/x86_64/intel_oneapi/2021.4/mkl/latest/lib/intel64/libmkl_blacs_intelmpi_lp64.so
                   /mpcdf/soft/SLE_15/packages/x86_64/intel_oneapi/2021.4/mkl/latest/lib/intel64/libmkl_scalapack_lp64.so

  Using      288 parallel tasks.
  Task        0 on host ravg1206 reporting.
  Task        1 on host ravg1206 reporting.
  Task        2 on host ravg1206 reporting.
  Task        3 on host ravg1206 reporting.
  Task        4 on host ravg1206 reporting.
  Task        5 on host ravg1206 reporting.
  Task        6 on host ravg1206 reporting.
  Task        7 on host ravg1206 reporting.
  Task        8 on host ravg1206 reporting.
  Task        9 on host ravg1206 reporting.
  Task       10 on host ravg1206 reporting.
  Task       11 on host ravg1206 reporting.
  Task       12 on host ravg1206 reporting.
  Task       13 on host ravg1206 reporting.
  Task       14 on host ravg1206 reporting.
  Task       15 on host ravg1206 reporting.
  Task       16 on host ravg1206 reporting.
  Task       17 on host ravg1206 reporting.
  Task       18 on host ravg1206 reporting.
  Task       19 on host ravg1206 reporting.
  Task       20 on host ravg1206 reporting.
  Task       21 on host ravg1206 reporting.
  Task       22 on host ravg1206 reporting.
  Task       23 on host ravg1206 reporting.
  Task       24 on host ravg1206 reporting.
  Task       25 on host ravg1206 reporting.
  Task       26 on host ravg1206 reporting.
  Task       27 on host ravg1206 reporting.
  Task       28 on host ravg1206 reporting.
  Task       29 on host ravg1206 reporting.
  Task       30 on host ravg1206 reporting.
  Task       31 on host ravg1206 reporting.
  Task       32 on host ravg1206 reporting.
  Task       33 on host ravg1206 reporting.
  Task       34 on host ravg1206 reporting.
  Task       35 on host ravg1206 reporting.
  Task       36 on host ravg1206 reporting.
  Task       37 on host ravg1206 reporting.
  Task       38 on host ravg1206 reporting.
  Task       39 on host ravg1206 reporting.
  Task       40 on host ravg1206 reporting.
  Task       41 on host ravg1206 reporting.
  Task       42 on host ravg1206 reporting.
  Task       43 on host ravg1206 reporting.
  Task       44 on host ravg1206 reporting.
  Task       45 on host ravg1206 reporting.
  Task       46 on host ravg1206 reporting.
  Task       47 on host ravg1206 reporting.
  Task       48 on host ravg1206 reporting.
  Task       49 on host ravg1206 reporting.
  Task       50 on host ravg1206 reporting.
  Task       51 on host ravg1206 reporting.
  Task       52 on host ravg1206 reporting.
  Task       53 on host ravg1206 reporting.
  Task       54 on host ravg1206 reporting.
  Task       55 on host ravg1206 reporting.
  Task       56 on host ravg1206 reporting.
  Task       57 on host ravg1206 reporting.
  Task       58 on host ravg1206 reporting.
  Task       59 on host ravg1206 reporting.
  Task       60 on host ravg1206 reporting.
  Task       61 on host ravg1206 reporting.
  Task       62 on host ravg1206 reporting.
  Task       63 on host ravg1206 reporting.
  Task       64 on host ravg1206 reporting.
  Task       65 on host ravg1206 reporting.
  Task       66 on host ravg1206 reporting.
  Task       67 on host ravg1206 reporting.
  Task       68 on host ravg1206 reporting.
  Task       69 on host ravg1206 reporting.
  Task       70 on host ravg1206 reporting.
  Task       71 on host ravg1206 reporting.
  Task       72 on host ravg1208 reporting.
  Task       73 on host ravg1208 reporting.
  Task       74 on host ravg1208 reporting.
  Task       75 on host ravg1208 reporting.
  Task       76 on host ravg1208 reporting.
  Task       77 on host ravg1208 reporting.
  Task       78 on host ravg1208 reporting.
  Task       79 on host ravg1208 reporting.
  Task       80 on host ravg1208 reporting.
  Task       81 on host ravg1208 reporting.
  Task       82 on host ravg1208 reporting.
  Task       83 on host ravg1208 reporting.
  Task       84 on host ravg1208 reporting.
  Task       85 on host ravg1208 reporting.
  Task       86 on host ravg1208 reporting.
  Task       87 on host ravg1208 reporting.
  Task       88 on host ravg1208 reporting.
  Task       89 on host ravg1208 reporting.
  Task       90 on host ravg1208 reporting.
  Task       91 on host ravg1208 reporting.
  Task       92 on host ravg1208 reporting.
  Task       93 on host ravg1208 reporting.
  Task       94 on host ravg1208 reporting.
  Task       95 on host ravg1208 reporting.
  Task       96 on host ravg1208 reporting.
  Task       97 on host ravg1208 reporting.
  Task       98 on host ravg1208 reporting.
  Task       99 on host ravg1208 reporting.
  Task      100 on host ravg1208 reporting.
  Task      101 on host ravg1208 reporting.
  Task      102 on host ravg1208 reporting.
  Task      103 on host ravg1208 reporting.
  Task      104 on host ravg1208 reporting.
  Task      105 on host ravg1208 reporting.
  Task      106 on host ravg1208 reporting.
  Task      107 on host ravg1208 reporting.
  Task      108 on host ravg1208 reporting.
  Task      109 on host ravg1208 reporting.
  Task      110 on host ravg1208 reporting.
  Task      111 on host ravg1208 reporting.
  Task      112 on host ravg1208 reporting.
  Task      113 on host ravg1208 reporting.
  Task      114 on host ravg1208 reporting.
  Task      115 on host ravg1208 reporting.
  Task      116 on host ravg1208 reporting.
  Task      117 on host ravg1208 reporting.
  Task      118 on host ravg1208 reporting.
  Task      119 on host ravg1208 reporting.
  Task      120 on host ravg1208 reporting.
  Task      121 on host ravg1208 reporting.
  Task      122 on host ravg1208 reporting.
  Task      123 on host ravg1208 reporting.
  Task      124 on host ravg1208 reporting.
  Task      125 on host ravg1208 reporting.
  Task      126 on host ravg1208 reporting.
  Task      127 on host ravg1208 reporting.
  Task      128 on host ravg1208 reporting.
  Task      129 on host ravg1208 reporting.
  Task      130 on host ravg1208 reporting.
  Task      131 on host ravg1208 reporting.
  Task      132 on host ravg1208 reporting.
  Task      133 on host ravg1208 reporting.
  Task      134 on host ravg1208 reporting.
  Task      135 on host ravg1208 reporting.
  Task      136 on host ravg1208 reporting.
  Task      137 on host ravg1208 reporting.
  Task      138 on host ravg1208 reporting.
  Task      139 on host ravg1208 reporting.
  Task      140 on host ravg1208 reporting.
  Task      141 on host ravg1208 reporting.
  Task      142 on host ravg1208 reporting.
  Task      143 on host ravg1208 reporting.
  Task      144 on host ravg1211 reporting.
  Task      145 on host ravg1211 reporting.
  Task      146 on host ravg1211 reporting.
  Task      147 on host ravg1211 reporting.
  Task      148 on host ravg1211 reporting.
  Task      149 on host ravg1211 reporting.
  Task      150 on host ravg1211 reporting.
  Task      151 on host ravg1211 reporting.
  Task      152 on host ravg1211 reporting.
  Task      153 on host ravg1211 reporting.
  Task      154 on host ravg1211 reporting.
  Task      155 on host ravg1211 reporting.
  Task      156 on host ravg1211 reporting.
  Task      157 on host ravg1211 reporting.
  Task      158 on host ravg1211 reporting.
  Task      159 on host ravg1211 reporting.
  Task      160 on host ravg1211 reporting.
  Task      161 on host ravg1211 reporting.
  Task      162 on host ravg1211 reporting.
  Task      163 on host ravg1211 reporting.
  Task      164 on host ravg1211 reporting.
  Task      165 on host ravg1211 reporting.
  Task      166 on host ravg1211 reporting.
  Task      167 on host ravg1211 reporting.
  Task      168 on host ravg1211 reporting.
  Task      169 on host ravg1211 reporting.
  Task      170 on host ravg1211 reporting.
  Task      171 on host ravg1211 reporting.
  Task      172 on host ravg1211 reporting.
  Task      173 on host ravg1211 reporting.
  Task      174 on host ravg1211 reporting.
  Task      175 on host ravg1211 reporting.
  Task      176 on host ravg1211 reporting.
  Task      177 on host ravg1211 reporting.
  Task      178 on host ravg1211 reporting.
  Task      179 on host ravg1211 reporting.
  Task      180 on host ravg1211 reporting.
  Task      181 on host ravg1211 reporting.
  Task      182 on host ravg1211 reporting.
  Task      183 on host ravg1211 reporting.
  Task      184 on host ravg1211 reporting.
  Task      185 on host ravg1211 reporting.
  Task      186 on host ravg1211 reporting.
  Task      187 on host ravg1211 reporting.
  Task      188 on host ravg1211 reporting.
  Task      189 on host ravg1211 reporting.
  Task      190 on host ravg1211 reporting.
  Task      191 on host ravg1211 reporting.
  Task      192 on host ravg1211 reporting.
  Task      193 on host ravg1211 reporting.
  Task      194 on host ravg1211 reporting.
  Task      195 on host ravg1211 reporting.
  Task      196 on host ravg1211 reporting.
  Task      197 on host ravg1211 reporting.
  Task      198 on host ravg1211 reporting.
  Task      199 on host ravg1211 reporting.
  Task      200 on host ravg1211 reporting.
  Task      201 on host ravg1211 reporting.
  Task      202 on host ravg1211 reporting.
  Task      203 on host ravg1211 reporting.
  Task      204 on host ravg1211 reporting.
  Task      205 on host ravg1211 reporting.
  Task      206 on host ravg1211 reporting.
  Task      207 on host ravg1211 reporting.
  Task      208 on host ravg1211 reporting.
  Task      209 on host ravg1211 reporting.
  Task      210 on host ravg1211 reporting.
  Task      211 on host ravg1211 reporting.
  Task      212 on host ravg1211 reporting.
  Task      213 on host ravg1211 reporting.
  Task      214 on host ravg1211 reporting.
  Task      215 on host ravg1211 reporting.
  Task      216 on host ravg1212 reporting.
  Task      217 on host ravg1212 reporting.
  Task      218 on host ravg1212 reporting.
  Task      219 on host ravg1212 reporting.
  Task      220 on host ravg1212 reporting.
  Task      221 on host ravg1212 reporting.
  Task      222 on host ravg1212 reporting.
  Task      223 on host ravg1212 reporting.
  Task      224 on host ravg1212 reporting.
  Task      225 on host ravg1212 reporting.
  Task      226 on host ravg1212 reporting.
  Task      227 on host ravg1212 reporting.
  Task      228 on host ravg1212 reporting.
  Task      229 on host ravg1212 reporting.
  Task      230 on host ravg1212 reporting.
  Task      231 on host ravg1212 reporting.
  Task      232 on host ravg1212 reporting.
  Task      233 on host ravg1212 reporting.
  Task      234 on host ravg1212 reporting.
  Task      235 on host ravg1212 reporting.
  Task      236 on host ravg1212 reporting.
  Task      237 on host ravg1212 reporting.
  Task      238 on host ravg1212 reporting.
  Task      239 on host ravg1212 reporting.
  Task      240 on host ravg1212 reporting.
  Task      241 on host ravg1212 reporting.
  Task      242 on host ravg1212 reporting.
  Task      243 on host ravg1212 reporting.
  Task      244 on host ravg1212 reporting.
  Task      245 on host ravg1212 reporting.
  Task      246 on host ravg1212 reporting.
  Task      247 on host ravg1212 reporting.
  Task      248 on host ravg1212 reporting.
  Task      249 on host ravg1212 reporting.
  Task      250 on host ravg1212 reporting.
  Task      251 on host ravg1212 reporting.
  Task      252 on host ravg1212 reporting.
  Task      253 on host ravg1212 reporting.
  Task      254 on host ravg1212 reporting.
  Task      255 on host ravg1212 reporting.
  Task      256 on host ravg1212 reporting.
  Task      257 on host ravg1212 reporting.
  Task      258 on host ravg1212 reporting.
  Task      259 on host ravg1212 reporting.
  Task      260 on host ravg1212 reporting.
  Task      261 on host ravg1212 reporting.
  Task      262 on host ravg1212 reporting.
  Task      263 on host ravg1212 reporting.
  Task      264 on host ravg1212 reporting.
  Task      265 on host ravg1212 reporting.
  Task      266 on host ravg1212 reporting.
  Task      267 on host ravg1212 reporting.
  Task      268 on host ravg1212 reporting.
  Task      269 on host ravg1212 reporting.
  Task      270 on host ravg1212 reporting.
  Task      271 on host ravg1212 reporting.
  Task      272 on host ravg1212 reporting.
  Task      273 on host ravg1212 reporting.
  Task      274 on host ravg1212 reporting.
  Task      275 on host ravg1212 reporting.
  Task      276 on host ravg1212 reporting.
  Task      277 on host ravg1212 reporting.
  Task      278 on host ravg1212 reporting.
  Task      279 on host ravg1212 reporting.
  Task      280 on host ravg1212 reporting.
  Task      281 on host ravg1212 reporting.
  Task      282 on host ravg1212 reporting.
  Task      283 on host ravg1212 reporting.
  Task      284 on host ravg1212 reporting.
  Task      285 on host ravg1212 reporting.
  Task      286 on host ravg1212 reporting.
  Task      287 on host ravg1212 reporting.

  Performing system and environment tests:
  | Environment variable OMP_NUM_THREADS correctly set to 1.
  | Checking for ScaLAPACK...
  | Testing pdtran()...
  | All pdtran() tests passed.

  Obtaining array dimensions for all initial allocations:
  
  -----------------------------------------------------------------------
  Parsing control.in (first pass over file, find array dimensions only).
  The contents of control.in will be repeated verbatim below
  unless switched off by setting 'verbatim_writeout .false.' .
  in the first line of control.in .
  -----------------------------------------------------------------------
  
  xc                 hse06  0.11
  hse_unit b
  spin               collinear
  default_initial_moment 1
  charge      0.0
  relativistic       atomic_zora scalar
  #elsi_restart read
  # SCF settings
  #relax_geometry bfgs 1E-3
  #relax_unit_cell fixed_angles
  use_symmetric_forces .true.
  occupation_type gaussian       0.1
  # k-grid settings  (to be adjusted)
  k_grid  4 4 1
  #empty_states 8
  use_dipole_correction
  include_spin_orbit non_self_consistent
  # sc_accuracy_rho    1E-4
  #    sc_accuracy_eev    1E-3
  #    sc_accuracy_etot   1E-4
  #    sc_accuracy_forces 1E-2
  output dos_tetrahedron -10 0 2001 0.1
  output species_proj_dos_tetrahedron -10 0 2001 0.1
  
  many_body_dispersion_nl    beta=0.83
  ################################################################################
  #
  #  FHI-aims code project
  #  Volker Blum, 2018
  #
  #  Suggested "intermediate" defaults for Se atom (to be pasted into control.in file)
  #
  #  2020/09/15 These "intermediate" settings are identical to past "tight" defaults
  #             and differ only in the "g" function that is now included in "tight".
  #
  ################################################################################
    species        Se
  #     global species definitions
      nucleus             34
      mass                78.96
  #
      l_hartree           6
  #
      cut_pot             4.0          2.0  1.0
      basis_dep_cutoff    1e-4
  #
      radial_base         55 7.0
      radial_multiplier   2
      angular_grids       specified
        division   0.0830  110
        division   0.1357  194
        division   0.7377  302
        division   0.8610  434
  #      division   0.9640  590
  #      division   1.0773  770
  #      division   2.5539  974
  #      outer_grid  974
        outer_grid  434
  ################################################################################
  #
  #  Definition of "minimal" basis
  #
  ################################################################################
  #     valence basis states
      valence      4  s   2.
      valence      4  p   4.
      valence      3  d  10.
  #     ion occupancy
      ion_occ      4  s   1.
      ion_occ      4  p   3.
      ion_occ      3  d  10.
  ################################################################################
  #
  #  Suggested additional basis functions. For production calculations,
  #  uncomment them one after another (the most important basis functions are
  #  listed first).
  #
  #  Constructed for dimers: 1.85 A, 2.15 A, 2.50 A, 3.00 A, 4.00 A
  #
  ################################################################################
  #  "First tier" - improvements: -336.21 meV to -36.85 meV
       hydro 3 d 4.3
       hydro 2 p 1.6
       hydro 4 f 7.2
       ionic 4 s auto
  #  "Second tier" - improvements: -14.39 meV to -1.49 meV
  #     hydro 5 g 10.4
  #     hydro 4 p 4.5
  #     hydro 4 d 6.2
  #     hydro 4 f 11.2
  #     hydro 1 s 0.65
  #     hydro 6 h 15.2
  #  "Third tier" - improvements: -0.46 meV and below
  #     hydro 5 g 14.4
  #     ionic 4 d auto
  #     hydro 4 f 22.4
  #     hydro 5 f 7.4
  #     hydro 5 p 8
  #     hydro 5 s 9.4
  #  "Fourth tier" - improvements: -0.12 meV and below
  #     hydro 5 d 11.6
  #     hydro 6 h 18
  #     hydro 4 p 4
  #     hydro 5 f 16
  #     hydro 4 s 3.9
  
  
  ################################################################################
  #
  #  FHI-aims code project
  #  Volker Blum, 2018
  #
  #  Suggested "intermediate" defaults for S atom (to be pasted into control.in file)
  #
  ################################################################################
    species        S
  #     global species definitions
      nucleus             16
      mass                32.065
  #
      l_hartree           6
  #
      cut_pot             4.0          2.0  1.0
      basis_dep_cutoff    1e-4
  #
      radial_base         44 7.0
      radial_multiplier   2
      angular_grids       specified
        division   0.4665  110
        division   0.5810  194
        division   0.7139  302
        division   0.8274  434
  #      division   0.9105  590
  #      division   1.0975  770
  #      division   1.2028  974
  #      outer_grid  974
        outer_grid  434
  ################################################################################
  #
  #  Definition of "minimal" basis
  #
  ################################################################################
  #     valence basis states
      valence      3  s   2.
      valence      3  p   4.
  #     ion occupancy
      ion_occ      3  s   1.
      ion_occ      3  p   3.
  ################################################################################
  #
  #  Suggested additional basis functions. For production calculations,
  #  uncomment them one after another (the most important basis functions are
  #  listed first).
  #
  #  Constructed for dimers: 1.6 A, 1.9 A, 2.5 A, 3.25 A, 4.0 A
  #
  ################################################################################
  #  "First tier" - improvements: -652.81 meV to -45.53 meV
       ionic 3 d auto
       hydro 2 p 1.8
       hydro 4 f 7
       ionic 3 s auto
  #  "Second tier" - improvements: -30.20 meV to -1.74 meV
  #     hydro 4 d 6.2
  for_aux     hydro 5 g 10.8
  #     hydro 4 p 4.9
  #     hydro 5 f 10
  #     hydro 1 s 0.8
  #  "Third tier" - improvements: -1.04 meV to -0.20 meV
  #     hydro 3 d 3.9
  #     hydro 3 d 2.7
  #     hydro 5 g 12
  #     hydro 4 p 10.4
  #     hydro 5 f 12.4
  #     hydro 2 s 1.9
  #  "Fourth tier" - improvements: -0.35 meV to -0.06 meV
  #     hydro 4 d 10.4
  #     hydro 4 p 7.2
  #     hydro 4 d 10
  #     hydro 5 g 19.2
  #     hydro 4 s 12
  
  ################################################################################
  #
  #  FHI-aims code project
  # Volker Blum, Fritz Haber Institute Berlin, 2009
  #
  #  Suggested "intermediate" defaults for Mo atom (to be pasted into control.in file)
  #
  #  See https://aaltodoc.aalto.fi/handle/123456789/33620 for the report these
  #  setting are based on
  ################################################################################
    species        Mo
  #     global species definitions
      nucleus             42
      mass                95.94
  #
      l_hartree           6
  #
      cut_pot             4.0  2.0  1.0
      basis_dep_cutoff    1e-4
  #
      radial_base         59 7.0
      radial_multiplier   2
      angular_grids specified
        division   0.3117   50
        division   0.6750  110
        division   1.0351  194
        division   1.2073  302
        division   1.6402  434
  #      division   1.9185  590
  #      division   2.0237  770
  #      division   2.0980  974
  #      division   2.7972 1202
  #      outer_grid  974
        outer_grid  434
  ################################################################################
  #
  #  Definition of "minimal" basis
  #
  ################################################################################
  #     valence basis states
      valence      5  s   1.
      valence      4  p   6.
      valence      4  d   5.
  #     ion occupancy
      ion_occ     5  s   0.
      ion_occ     4  p   6.
      ion_occ     4  d   4.
  ################################################################################
  #
  #  Suggested additional basis functions. For production calculations,
  #  uncomment them one after another (the most important basis functions are
  #  listed first).
  #
  #  Constructed for dimers: 1.675 A, 1.9 A, 2.375 A, 3.00 A, 4.00 A
  #
  ################################################################################
  #  "First tier"  - max. impr. -711.23  meV, min. impr. -21.07 meV
       hydro 4 f 8.4
       hydro 3 d 2.8
       ionic 5 p auto
       for_aux hydro 5 g 12
       ionic 5 s auto
  #  "Second tier" - max. impr. -39.38  meV, min. impr. -2.68 meV
  #     hydro 4 f 12.4
  #     hydro 3 d 3.3
  #     hydro 6 h 17.2
  #     hydro 4 f 7.6
  #     hydro 3 p 3.0
  #     hydro 1 s 0.65
  #  "Third tier"  - max. impr. -5.50 meV, min. impr. -0.47 meV
  #     hydro 4 f 29.2
  #     hydro 5 g 11.2
  #     hydro 3 d 6.8
  #     hydro 6 h 14.8
  #     hydro 2 p 2.3
  #     hydro 4 s 3.8
  #  "Fourth tier"  - max. impr. -0.58 meV, min. impr. -0.19 meV
  #     hydro 5 f 6.8
  #     hydro 5 d 14.8
  #     hydro 6 s 7.8
  #     hydro 5 g 20.8
  #     hydro 5 d 10.4
  #     hydro 5 p 9.8
  #  Further functions - -0.17 meV and below
  #     hydro 5 d 3.2
  ################################################################################
  #
  #  FHI-aims code project
  #  Volker Blum, Maria Dragoumi, Sebastian Kokott 2020
  #
  #  Suggested "intermediate" defaults for W atom (to be pasted into control.in file)
  #
  ################################################################################
    species          W
  #     global species definitions
      nucleus        74
      mass           183.84
  #
      l_hartree      6
  #
      cut_pot        4.0  2.0  1.0
      basis_dep_cutoff    1e-4
  #
      radial_base    71  7.0
      radial_multiplier  2
      angular_grids specified
        division   0.2901   50
        division   0.6986  110
        division   1.0528  194
        division   1.2659  302
        division   1.5223  434
  #      division   1.8111  590
  #      division   2.0105  770
  #      division   2.0413  974
  #      division   2.8804 1202
  #      outer_grid  974
        outer_grid  434
  ################################################################################
  #
  #  Definition of "minimal" basis
  #
  ################################################################################
  #     valence basis states
      valence      6  s   2.
      valence      5  p   6.
      valence      5  d   4.
      valence      4  f  14.
  #     ion occupancy
      ion_occ      6  s   1.
      ion_occ      5  p   6.
      ion_occ      5  d   3.
      ion_occ      4  f  14.
  ################################################################################
  #
  #  Suggested additional basis functions. For production calculations,
  #  uncomment them one after another (the most important basis functions are
  #  listed first).
  #
  #  Constructed for dimers: 1.775, 1.99, 2.50, 3.25, 4.50 AA
  #
  ################################################################################
  #
  #  "First tier" - improvements: -603.77 meV to -28.99 meV
       hydro 4 f 7.8
       hydro 4 d 5.8
       ionic 6 p auto
    for_aux   hydro 5 g 12.4
       ionic 6 s auto
  #  "Second tier" - improvements: -28.30 meV to -1.31 meV
  #     hydro 6 h 16.8
  #     ionic 5 d auto
  #     hydro 4 f 8.6
  #     hydro 5 g 16.8
  #     hydro 5 d 8.4
  #     hydro 3 p 3.3
  #     hydro 1 s 0.55
  #  "Third tier" - max. impr. -1.79 meV, min. impr. -0.26 meV
  #     hydro 5 f 10.8
  #     hydro 5 g 34.4
  #     hydro 6 h 20.8
  #     hydro 5 g 12.8
  #     hydro 2 p 1.6
  #     hydro 4 s 4.7
  #     hydro 6 d 18.4
  #  "Fourth tier" -0.46 max. impr. - meV, min. impr. -0.09 meV
  #     hydro 6 h 21.6
  #     hydro 5 f 22.4
  #     hydro 4 f 4
  #     hydro 5 p 9.6
  #     hydro 6 d 17.2
  #     hydro 3 p 5.2
  #     hydro 5 g 4.7
  #     hydro 6 s 7.6
  
  -----------------------------------------------------------------------
  Completed first pass over input file control.in .
  -----------------------------------------------------------------------
  
  
  -----------------------------------------------------------------------
  Parsing geometry.in (first pass over file, find array dimensions only).
  The contents of geometry.in will be repeated verbatim below
  unless switched off by setting 'verbatim_writeout .false.' .
  in the first line of geometry.in .
  -----------------------------------------------------------------------
  
  #
  # This is the geometry file that corresponds to the current relaxation step.
  # If you do not want this file to be written, set the "write_restart_geometry" flag to .false.
  #  aims_uuid : 4539E001-6EAC-4DB2-A450-008F5045F82D
  #
    set_vacuum_level         0.651789
  lattice_vector     16.31232095      0.00000000      0.00000000
  lattice_vector     -8.15665875     14.12581815      0.00000000
  lattice_vector      0.00000000      0.00000000    103.32585319
  atom      -0.00079498      0.94034503     51.61828904 Mo
  atom       1.63126707      1.88254315     53.27869266 Se
  atom       1.63166632      1.88277255     49.95828285 Se
  atom      -1.63130326      3.76516016     51.62039723 Mo
  atom      -0.00165874      4.70646435     53.28454006 Se
  atom      -0.00398248      4.71000212     49.95741343 Se
  atom      -3.26120319      6.59001283     51.62315832 Mo
  atom      -1.63144996      7.53238110     53.28737757 Se
  atom      -1.63141964      7.53427759     49.96129096 Se
  atom      -4.89425981      9.41814149     51.62314679 Mo
  atom      -3.26319381     10.35823431     53.28736308 Se
  atom      -3.26152328     10.35731101     49.96129302 Se
  atom      -6.52603588     12.24191852     51.62038060 Mo
  atom      -4.89594632     13.18241542     53.28454102 Se
  atom      -4.89403474     13.17863306     49.95739547 Se
  atom       3.26631031      0.93596893     51.61786862 Mo
  atom       4.88772756      1.88172078     53.28548211 Se
  atom       4.88957296      1.86791703     49.94284417 Se
  atom       1.62889391      3.77172699     51.61787238 Mo
  atom       3.25868375      4.70292441     53.28550622 Se
  atom       3.24764436      4.71141576     49.94282401 Se
  atom      -0.00163579      6.59004334     51.62319610 Mo
  atom       1.63663848      7.52964686     53.28183379 Se
  atom       1.63082632      7.53296389     49.96292243 Se
  atom      -1.63151281      9.41632216     51.62506771 Mo
  atom       0.00012503     10.35824930     53.28737727 Se
  atom      -0.00153442     10.35729329     49.96127702 Se
  atom      -3.26453506     12.24078960     51.62319570 Mo
  atom      -1.63160823     13.18960484     53.28185284 Se
  atom      -1.63163115     13.18290704     49.96291633 Se
  atom       6.52494466      0.94971499     51.61806978 Mo
  atom       8.16219438      1.88172722     53.28541884 Se
  atom       8.16027481      1.86788585     49.94279964 Se
  atom       4.85328975      3.74274480     51.60587855 Mo
  atom       6.52489205      4.70768249     53.18547747 Se
  atom       6.52522183      4.70812090     55.42034163 Se
  atom       6.52481599      4.70760358     49.98053382 Se
  atom       3.27003234      6.58668393     51.61806607 Mo
  atom       4.89585622      7.53845078     53.28540025 Se
  atom       4.88287876      7.54370252     49.94275718 Se
  atom       1.63120781      9.41815248     51.62316741 Mo
  atom       3.26248447     10.35996774     53.28447638 Se
  atom       3.25818243     10.36023043     49.95732797 Se
  atom       0.00133577     12.24075736     51.62317559 Mo
  atom       1.63269010     13.18245215     53.28449864 Se
  atom       1.63076224     13.17861765     49.95734432 Se
  atom       9.78360849      0.93595191     51.61778792 Mo
  atom      11.41858495      1.88256007     53.27860599 Se
  atom      11.41820784      1.88276514     49.95819822 Se
  atom       8.19640938      3.74273828     51.60579840 Mo
  atom       9.79099992      4.70290107     53.28541710 Se
  atom       9.80202231      4.71140555     49.94274236 Se
  atom       6.52475148      6.63762947     51.60576269 Mo
  atom       8.15364095      7.53843842     53.28536719 Se
  atom       8.16655137      7.54371891     49.94273299 Se
  atom       4.88731553      9.41543511     51.61775954 Mo
  atom       6.52464409     10.35795173     53.27858858 Se
  atom       6.52462547     10.35753111     49.95816049 Se
  atom       3.26279915     12.24189652     51.62035132 Mo
  atom       4.89445361     13.18382327     53.28197019 Se
  atom       4.89301929     13.18301027     49.95597482 Se
  atom      13.05069309      0.94034930     51.61824866 Mo
  atom      14.68107795      1.88121256     53.28201753 Se
  atom      14.68110962      1.88286858     49.95601366 Se
  atom      11.42084527      3.77175675     51.61777537 Mo
  atom      13.05130234      4.70646087     53.28450298 Se
  atom      13.05369888      4.71000551     49.95735706 Se
  atom       9.77948826      6.58667870     51.61799391 Mo
  atom      11.41283422      7.52963375     53.28178483 Se
  atom      11.41866920      7.53298974     49.96287175 Se
  atom       8.16201702      9.41543805     51.61774296 Mo
  atom       9.78679244     10.35996220     53.28448411 Se
  atom       9.79108231     10.36026365     49.95732576 Se
  atom       6.52455331     12.24241575     51.61823076 Mo
  atom       8.15460975     13.18381674     53.28200392 Se
  atom       8.15605762     13.18302290     49.95598853 Se
  #
  # What follows is the current estimated Hessian matrix constructed by the BFGS algorithm.
  # This is NOT the true Hessian matrix of the system.
  # If you do not want this information here, switch it off using the "hessian_to_restart_geometry" keyword.
  #
  
  -----------------------------------------------------------------------
  Completed first pass over input file geometry.in .
  -----------------------------------------------------------------------
  

  Basic array size parameters:
  | Number of species                 :        4
  | Number of atoms                   :       76
  | Number of lattice vectors         :        3
  | Max. basis fn. angular momentum   :        4
  | Max. atomic/ionic basis occupied n:        6
  | Max. number of basis fn. types    :        3
  | Max. radial fns per species/type  :       14
  | Max. logarithmic grid size        :     1483
  | Max. radial integration grid size :      143
  | Max. angular integration grid size:      434
  | Max. angular grid division number :        8
  | Radial grid for Hartree potential :     1483
  | Number of spin channels           :        2

------------------------------------------------------------
          Reading file control.in.
------------------------------------------------------------

  XC: Using HSE-functional with OMEGA =  0.110000E+00 <units>.
  XC: For the actual units (bohr^-1 or Angstrom^-1), see below.
  hse_unit: Unit for the HSE06 hybrid functional screening parameter set to bohr^(-1).
  Spin treatment: Spin density functional theory - collinear spins.
  Initial spin moment per atom:   1.0000
  Charge =   0.000000E+00: Neutral system requested explicitly.
  Scalar relativistic treatment of kinetic energy: on-site free-atom approximation to ZORA.
  Occupation type: Gaussian broadening, width =   0.100000E+00 eV.
  Found k-point grid:         4         4         1
  Using dipole correction.
  Calculating non-self-consistent second-variational spin-orbit coupling after scf-cycle
  You have request a SOC run with spin-polarization.
  symmetry_reduced_k_grid will be turned off.
  Calculating density of states with
  | energy interval :-10.000000  0.000000
  | points & tetrahedron method :  2001
  Calculating angular-momentum projected DOS with 
  | energy interval :-10.000000  0.000000
  | points & tetrahedron :  2001
  Using libMBD for calculating MBD and TS energies
 
  Reading configuration options for species Se                  .
  | Found nuclear charge :  34.0000
  | Found atomic mass :    78.9600000000000      amu
  | Found l_max for Hartree potential  :   6
  | Found cutoff potl. onset [A], width [A], scale factor :    4.00000    2.00000    1.00000
  | Threshold for basis-dependent cutoff potential is   0.100000E-03
  | Found data for basic radial integration grid :    55 points, outermost radius =    7.000 A
  | Found multiplier for basic radial grid :   2
  | Found angular grid specification: user-specified.
  | Specified grid contains     5 separate shells.
  | Check grid settings after all constraints further below.
  | Found free-atom valence shell :  4 s   2.000
  | Found free-atom valence shell :  4 p   4.000
  | Found free-atom valence shell :  3 d  10.000
  | Found free-ion valence shell :  4 s   1.000
  | Found free-ion valence shell :  4 p   3.000
  | Found free-ion valence shell :  3 d  10.000
  | Found hydrogenic basis function :  3 d   4.300
  | Found hydrogenic basis function :  2 p   1.600
  | Found hydrogenic basis function :  4 f   7.200
  | Found ionic basis function :  4 s , default cutoff radius.
  Species Se                  : Missing cutoff potential type.
  Defaulting to exp(1/x)/(1-x)^2 type cutoff potential.
  Species Se: No 'logarithmic' tag. Using default grid for free atom:
  | Default logarithmic grid data [bohr] : 0.1000E-03 0.1000E+03 0.1012E+01
  | Will include ionic basis functions of  2.0-fold positive Se                   ion.
  Species Se: On-site basis accuracy parameter (for Gram-Schmidt orthonormalisation) not specified.
  Using default value basis_acc =  0.1000000E-03.
  Species Se                  : Using default innermost maximum threshold i_radial=  2 for radial functions.
  Species Se                  : Default cutoff onset for free atom density etc. : 0.40000000E+01 AA.
  Species Se                  : Basic radial grid will be enhanced according to radial_multiplier =   2, to contain   111 grid points.
 
  Reading configuration options for species S                   .
  | Found nuclear charge :  16.0000
  | Found atomic mass :    32.0650000000000      amu
  | Found l_max for Hartree potential  :   6
  | Found cutoff potl. onset [A], width [A], scale factor :    4.00000    2.00000    1.00000
  | Threshold for basis-dependent cutoff potential is   0.100000E-03
  | Found data for basic radial integration grid :    44 points, outermost radius =    7.000 A
  | Found multiplier for basic radial grid :   2
  | Found angular grid specification: user-specified.
  | Specified grid contains     5 separate shells.
  | Check grid settings after all constraints further below.
  | Found free-atom valence shell :  3 s   2.000
  | Found free-atom valence shell :  3 p   4.000
  | Found free-ion valence shell :  3 s   1.000
  | Found free-ion valence shell :  3 p   3.000
  | Found ionic basis function :  3 d , default cutoff radius.
  | Found hydrogenic basis function :  2 p   1.800
  | Found hydrogenic basis function :  4 f   7.000
  | Found ionic basis function :  3 s , default cutoff radius.
  | Found hydrogenic extended basis function :  5 g  10.800
  Species S                   : Missing cutoff potential type.
  Defaulting to exp(1/x)/(1-x)^2 type cutoff potential.
  Species S : No 'logarithmic' tag. Using default grid for free atom:
  | Default logarithmic grid data [bohr] : 0.1000E-03 0.1000E+03 0.1012E+01
  | Will include ionic basis functions of  2.0-fold positive S                    ion.
  Species S : On-site basis accuracy parameter (for Gram-Schmidt orthonormalisation) not specified.
  Using default value basis_acc =  0.1000000E-03.
  Species S                   : Using default innermost maximum threshold i_radial=  2 for radial functions.
  Species S                   : Default cutoff onset for free atom density etc. : 0.40000000E+01 AA.
  Species S                   : Basic radial grid will be enhanced according to radial_multiplier =   2, to contain    89 grid points.
 
  Reading configuration options for species Mo                  .
  | Found nuclear charge :  42.0000
  | Found atomic mass :    95.9400000000000      amu
  | Found l_max for Hartree potential  :   6
  | Found cutoff potl. onset [A], width [A], scale factor :    4.00000    2.00000    1.00000
  | Threshold for basis-dependent cutoff potential is   0.100000E-03
  | Found data for basic radial integration grid :    59 points, outermost radius =    7.000 A
  | Found multiplier for basic radial grid :   2
  | Found angular grid specification: user-specified.
  | Specified grid contains     6 separate shells.
  | Check grid settings after all constraints further below.
  | Found free-atom valence shell :  5 s   1.000
  | Found free-atom valence shell :  4 p   6.000
  | Found free-atom valence shell :  4 d   5.000
  | Found free-ion valence shell :  5 s   0.000
  | Found free-ion valence shell :  4 p   6.000
  | Found free-ion valence shell :  4 d   4.000
  | Found hydrogenic basis function :  4 f   8.400
  | Found hydrogenic basis function :  3 d   2.800
  | Found ionic basis function :  5 p , default cutoff radius.
  | Found hydrogenic extended basis function :  5 g  12.000
  | Found ionic basis function :  5 s , default cutoff radius.
  Species Mo                  : Missing cutoff potential type.
  Defaulting to exp(1/x)/(1-x)^2 type cutoff potential.
  Species Mo: No 'logarithmic' tag. Using default grid for free atom:
  | Default logarithmic grid data [bohr] : 0.1000E-03 0.1000E+03 0.1012E+01
  | Will include ionic basis functions of  2.0-fold positive Mo                   ion.
  Species Mo: On-site basis accuracy parameter (for Gram-Schmidt orthonormalisation) not specified.
  Using default value basis_acc =  0.1000000E-03.
  Species Mo                  : Using default innermost maximum threshold i_radial=  2 for radial functions.
  Species Mo                  : Default cutoff onset for free atom density etc. : 0.40000000E+01 AA.
  Species Mo                  : Basic radial grid will be enhanced according to radial_multiplier =   2, to contain   119 grid points.
 
  Reading configuration options for species W                   .
  | Found nuclear charge :  74.0000
  | Found atomic mass :    183.840000000000      amu
  | Found l_max for Hartree potential  :   6
  | Found cutoff potl. onset [A], width [A], scale factor :    4.00000    2.00000    1.00000
  | Threshold for basis-dependent cutoff potential is   0.100000E-03
  | Found data for basic radial integration grid :    71 points, outermost radius =    7.000 A
  | Found multiplier for basic radial grid :   2
  | Found angular grid specification: user-specified.
  | Specified grid contains     6 separate shells.
  | Check grid settings after all constraints further below.
  | Found free-atom valence shell :  6 s   2.000
  | Found free-atom valence shell :  5 p   6.000
  | Found free-atom valence shell :  5 d   4.000
  | Found free-atom valence shell :  4 f  14.000
  | Found free-ion valence shell :  6 s   1.000
  | Found free-ion valence shell :  5 p   6.000
  | Found free-ion valence shell :  5 d   3.000
  | Found free-ion valence shell :  4 f  14.000
  | Found hydrogenic basis function :  4 f   7.800
  | Found hydrogenic basis function :  4 d   5.800
  | Found ionic basis function :  6 p , default cutoff radius.
  | Found hydrogenic extended basis function :  5 g  12.400
  | Found ionic basis function :  6 s , default cutoff radius.
  Species W                   : Missing cutoff potential type.
  Defaulting to exp(1/x)/(1-x)^2 type cutoff potential.
  Species W : No 'logarithmic' tag. Using default grid for free atom:
  | Default logarithmic grid data [bohr] : 0.1000E-03 0.1000E+03 0.1012E+01
  | Will include ionic basis functions of  2.0-fold positive W                    ion.
  Species W : On-site basis accuracy parameter (for Gram-Schmidt orthonormalisation) not specified.
  Using default value basis_acc =  0.1000000E-03.
  Species W                   : Using default innermost maximum threshold i_radial=  2 for radial functions.
  Species W                   : Default cutoff onset for free atom density etc. : 0.40000000E+01 AA.
  Species W                   : Basic radial grid will be enhanced according to radial_multiplier =   2, to contain   143 grid points.
 
  Finished reading input file 'control.in'.
 
------------------------------------------------------------


------------------------------------------------------------
          Reading geometry description geometry.in.
------------------------------------------------------------
  Vacuum level in z-axis :   0.651789E+00
  | The smallest distance between any two atoms is         2.23486423 AA.
  | The first atom of this pair is atom number                     35 .
  | The second atom of this pair is atom number                    36 .
  | Wigner-Seitz cell of the first atom image           0     0     0 .
  | (The Wigner-Seitz cell of the second atom is 0 0 0  by definition.)

  Symmetry information by spglib:
  | Precision set to  0.1E-04
  | Number of Operations  : 1
  | Space group           : 1
  | International         : P1 s9
  | Schoenflies           : C1^1
  Input structure read successfully.
  The structure contains       76 atoms,  and a total of       2784.000 electrons.

  Input geometry:
  | Unit cell:
  |       16.31232095        0.00000000        0.00000000
  |       -8.15665875       14.12581815        0.00000000
  |        0.00000000        0.00000000      103.32585319
  | Atomic structure:
  |       Atom                x [A]            y [A]            z [A]
  |    1: Species Mo           -0.00079498        0.94034503       51.61828904
  |    2: Species Se            1.63126707        1.88254315       53.27869266
  |    3: Species Se            1.63166632        1.88277255       49.95828285
  |    4: Species Mo           -1.63130326        3.76516016       51.62039723
  |    5: Species Se           -0.00165874        4.70646435       53.28454006
  |    6: Species Se           -0.00398248        4.71000212       49.95741343
  |    7: Species Mo           -3.26120319        6.59001283       51.62315832
  |    8: Species Se           -1.63144996        7.53238110       53.28737757
  |    9: Species Se           -1.63141964        7.53427759       49.96129096
  |   10: Species Mo           -4.89425981        9.41814149       51.62314679
  |   11: Species Se           -3.26319381       10.35823431       53.28736308
  |   12: Species Se           -3.26152328       10.35731101       49.96129302
  |   13: Species Mo           -6.52603588       12.24191852       51.62038060
  |   14: Species Se           -4.89594632       13.18241542       53.28454102
  |   15: Species Se           -4.89403474       13.17863306       49.95739547
  |   16: Species Mo            3.26631031        0.93596893       51.61786862
  |   17: Species Se            4.88772756        1.88172078       53.28548211
  |   18: Species Se            4.88957296        1.86791703       49.94284417
  |   19: Species Mo            1.62889391        3.77172699       51.61787238
  |   20: Species Se            3.25868375        4.70292441       53.28550622
  |   21: Species Se            3.24764436        4.71141576       49.94282401
  |   22: Species Mo           -0.00163579        6.59004334       51.62319610
  |   23: Species Se            1.63663848        7.52964686       53.28183379
  |   24: Species Se            1.63082632        7.53296389       49.96292243
  |   25: Species Mo           -1.63151281        9.41632216       51.62506771
  |   26: Species Se            0.00012503       10.35824930       53.28737727
  |   27: Species Se           -0.00153442       10.35729329       49.96127702
  |   28: Species Mo           -3.26453506       12.24078960       51.62319570
  |   29: Species Se           -1.63160823       13.18960484       53.28185284
  |   30: Species Se           -1.63163115       13.18290704       49.96291633
  |   31: Species Mo            6.52494466        0.94971499       51.61806978
  |   32: Species Se            8.16219438        1.88172722       53.28541884
  |   33: Species Se            8.16027481        1.86788585       49.94279964
  |   34: Species Mo            4.85328975        3.74274480       51.60587855
  |   35: Species Se            6.52489205        4.70768249       53.18547747
  |   36: Species Se            6.52522183        4.70812090       55.42034163
  |   37: Species Se            6.52481599        4.70760358       49.98053382
  |   38: Species Mo            3.27003234        6.58668393       51.61806607
  |   39: Species Se            4.89585622        7.53845078       53.28540025
  |   40: Species Se            4.88287876        7.54370252       49.94275718
  |   41: Species Mo            1.63120781        9.41815248       51.62316741
  |   42: Species Se            3.26248447       10.35996774       53.28447638
  |   43: Species Se            3.25818243       10.36023043       49.95732797
  |   44: Species Mo            0.00133577       12.24075736       51.62317559
  |   45: Species Se            1.63269010       13.18245215       53.28449864
  |   46: Species Se            1.63076224       13.17861765       49.95734432
  |   47: Species Mo            9.78360849        0.93595191       51.61778792
  |   48: Species Se           11.41858495        1.88256007       53.27860599
  |   49: Species Se           11.41820784        1.88276514       49.95819822
  |   50: Species Mo            8.19640938        3.74273828       51.60579840
  |   51: Species Se            9.79099992        4.70290107       53.28541710
  |   52: Species Se            9.80202231        4.71140555       49.94274236
  |   53: Species Mo            6.52475148        6.63762947       51.60576269
  |   54: Species Se            8.15364095        7.53843842       53.28536719
  |   55: Species Se            8.16655137        7.54371891       49.94273299
  |   56: Species Mo            4.88731553        9.41543511       51.61775954
  |   57: Species Se            6.52464409       10.35795173       53.27858858
  |   58: Species Se            6.52462547       10.35753111       49.95816049
  |   59: Species Mo            3.26279915       12.24189652       51.62035132
  |   60: Species Se            4.89445361       13.18382327       53.28197019
  |   61: Species Se            4.89301929       13.18301027       49.95597482
  |   62: Species Mo           13.05069309        0.94034930       51.61824866
  |   63: Species Se           14.68107795        1.88121256       53.28201753
  |   64: Species Se           14.68110962        1.88286858       49.95601366
  |   65: Species Mo           11.42084527        3.77175675       51.61777537
  |   66: Species Se           13.05130234        4.70646087       53.28450298
  |   67: Species Se           13.05369888        4.71000551       49.95735706
  |   68: Species Mo            9.77948826        6.58667870       51.61799391
  |   69: Species Se           11.41283422        7.52963375       53.28178483
  |   70: Species Se           11.41866920        7.53298974       49.96287175
  |   71: Species Mo            8.16201702        9.41543805       51.61774296
  |   72: Species Se            9.78679244       10.35996220       53.28448411
  |   73: Species Se            9.79108231       10.36026365       49.95732576
  |   74: Species Mo            6.52455331       12.24241575       51.61823076
  |   75: Species Se            8.15460975       13.18381674       53.28200392
  |   76: Species Se            8.15605762       13.18302290       49.95598853

  Lattice parameters for 3D lattice (in Angstroms) :    16.312321   16.311647  103.325853
  Angle(s) between unit vectors (in degrees)       :    90.000000   90.000000  120.003388


  Quantities derived from the lattice vectors:
  | Reciprocal lattice vector 1:  0.385180  0.222414  0.000000
  | Reciprocal lattice vector 2:  0.000000  0.444802  0.000000
  | Reciprocal lattice vector 3:  0.000000  0.000000  0.060809
  | Unit cell volume                               :   0.238088E+05  A^3

  Fractional coordinates:
                         L1                L2                L3
       atom_frac         0.03323792        0.06656924        0.49956799  Mo
       atom_frac         0.16664105        0.13326967        0.51563758  Se
       atom_frac         0.16667365        0.13328591        0.48350225  Se
       atom_frac         0.03327607        0.26654457        0.49958840  Mo
       atom_frac         0.16649935        0.33318172        0.51569417  Se
       atom_frac         0.16648213        0.33343216        0.48349384  Se
       atom_frac         0.03335283        0.46652256        0.49961512  Mo
       atom_frac         0.16662045        0.53323503        0.51572163  Se
       atom_frac         0.16668944        0.53336929        0.48353137  Se
       atom_frac         0.03335205        0.66673246        0.49961501  Mo
       atom_frac         0.16661960        0.73328385        0.51572149  Se
       atom_frac         0.16668932        0.73321849        0.48353139  Se
       atom_frac         0.03327573        0.86663430        0.49958823  Mo
       atom_frac         0.16649772        0.93321429        0.51569418  Se
       atom_frac         0.16648102        0.93294653        0.48349367  Se
       atom_frac         0.23336753        0.06625945        0.49956392  Mo
       atom_frac         0.36624389        0.13321145        0.51570329  Se
       atom_frac         0.36586839        0.13223425        0.48335284  Se
       atom_frac         0.23336954        0.26700945        0.49956396  Mo
       atom_frac         0.36624397        0.33293112        0.51570352  Se
       atom_frac         0.36586780        0.33353224        0.48335264  Se
       atom_frac         0.23317633        0.46652472        0.49961548  Mo
       atom_frac         0.36686845        0.53304147        0.51566798  Se
       atom_frac         0.36662956        0.53327629        0.48354716  Se
       atom_frac         0.23330499        0.66660367        0.49963360  Mo
       atom_frac         0.36667252        0.73328491        0.51572163  Se
       atom_frac         0.36653695        0.73321723        0.48353123  Se
       atom_frac         0.23317671        0.86655438        0.49961548  Mo
       atom_frac         0.36686709        0.93372325        0.51566816  Se
       atom_frac         0.36662859        0.93324910        0.48354710  Se
       atom_frac         0.43361933        0.06723257        0.49956587  Mo
       atom_frac         0.56697992        0.13321191        0.51570267  Se
       atom_frac         0.56637229        0.13223205        0.48335241  Se
       atom_frac         0.43000991        0.26495774        0.49944788  Mo
       atom_frac         0.56664193        0.33326795        0.51473543  Se
       atom_frac         0.56667766        0.33329899        0.53636471  Se
       atom_frac         0.56663447        0.33326237        0.48371760  Se
       atom_frac         0.43362165        0.46628690        0.49956583  Mo
       atom_frac         0.56698107        0.53366472        0.51570249  Se
       atom_frac         0.56637141        0.53403650        0.48335199  Se
       atom_frac         0.43338550        0.66673324        0.49961521  Mo
       atom_frac         0.56672693        0.73340656        0.51569355  Se
       atom_frac         0.56647250        0.73342516        0.48349301  Se
       atom_frac         0.43338441        0.86655210        0.49961529  Mo
       atom_frac         0.56672633        0.93321689        0.51569377  Se
       atom_frac         0.56647241        0.93294544        0.48349317  Se
       atom_frac         0.63289917        0.06625824        0.49956314  Mo
       atom_frac         0.76663707        0.13327087        0.51563674  Se
       atom_frac         0.76662121        0.13328539        0.48350143  Se
       atom_frac         0.63495412        0.26495727        0.49944711  Mo
       atom_frac         0.76669604        0.33292946        0.51570266  Se
       atom_frac         0.76767280        0.33353152        0.48335185  Se
       atom_frac         0.63495024        0.46989345        0.49944676  Mo
       atom_frac         0.76669377        0.53366384        0.51570217  Se
       atom_frac         0.76767214        0.53403766        0.48335176  Se
       atom_frac         0.63289963        0.66654087        0.49956287  Mo
       atom_frac         0.76663689        0.73326384        0.51563657  Se
       atom_frac         0.76662086        0.73323407        0.48350107  Se
       atom_frac         0.63336338        0.86663274        0.49958795  Mo
       atom_frac         0.76673192        0.93331396        0.51566930  Se
       atom_frac         0.76661521        0.93325641        0.48347992  Se
       atom_frac         0.83333808        0.06656955        0.49956760  Mo
       atom_frac         0.96659114        0.13317548        0.51566976  Se
       atom_frac         0.96665170        0.13329271        0.48348029  Se
       atom_frac         0.83365007        0.26701156        0.49956302  Mo
       atom_frac         0.96668953        0.33318147        0.51569381  Se
       atom_frac         0.96696192        0.33343240        0.48349329  Se
       atom_frac         0.83267295        0.46628653        0.49956514  Mo
       atom_frac         0.96618158        0.53304054        0.51566750  Se
       atom_frac         0.96665808        0.53327812        0.48354667  Se
       atom_frac         0.83364992        0.66654108        0.49956271  Mo
       atom_frac         0.96668870        0.73340617        0.51569363  Se
       atom_frac         0.96696235        0.73342751        0.48349299  Se
       atom_frac         0.83333823        0.86666950        0.49956743  Mo
       atom_frac         0.96659019        0.93331350        0.51566962  Se
       atom_frac         0.96665085        0.93325730        0.48348005  Se

  Initial moments and charges:
  |  Atom   Moment         Charge        Species
  |     1   0.100000E+01   0.000000E+00   Mo
  |     2   0.100000E+01   0.000000E+00   Se
  |     3   0.100000E+01   0.000000E+00   Se
  |     4   0.100000E+01   0.000000E+00   Mo
  |     5   0.100000E+01   0.000000E+00   Se
  |     6   0.100000E+01   0.000000E+00   Se
  |     7   0.100000E+01   0.000000E+00   Mo
  |     8   0.100000E+01   0.000000E+00   Se
  |     9   0.100000E+01   0.000000E+00   Se
  |    10   0.100000E+01   0.000000E+00   Mo
  |    11   0.100000E+01   0.000000E+00   Se
  |    12   0.100000E+01   0.000000E+00   Se
  |    13   0.100000E+01   0.000000E+00   Mo
  |    14   0.100000E+01   0.000000E+00   Se
  |    15   0.100000E+01   0.000000E+00   Se
  |    16   0.100000E+01   0.000000E+00   Mo
  |    17   0.100000E+01   0.000000E+00   Se
  |    18   0.100000E+01   0.000000E+00   Se
  |    19   0.100000E+01   0.000000E+00   Mo
  |    20   0.100000E+01   0.000000E+00   Se
  |    21   0.100000E+01   0.000000E+00   Se
  |    22   0.100000E+01   0.000000E+00   Mo
  |    23   0.100000E+01   0.000000E+00   Se
  |    24   0.100000E+01   0.000000E+00   Se
  |    25   0.100000E+01   0.000000E+00   Mo
  |    26   0.100000E+01   0.000000E+00   Se
  |    27   0.100000E+01   0.000000E+00   Se
  |    28   0.100000E+01   0.000000E+00   Mo
  |    29   0.100000E+01   0.000000E+00   Se
  |    30   0.100000E+01   0.000000E+00   Se
  |    31   0.100000E+01   0.000000E+00   Mo
  |    32   0.100000E+01   0.000000E+00   Se
  |    33   0.100000E+01   0.000000E+00   Se
  |    34   0.100000E+01   0.000000E+00   Mo
  |    35   0.100000E+01   0.000000E+00   Se
  |    36   0.100000E+01   0.000000E+00   Se
  |    37   0.100000E+01   0.000000E+00   Se
  |    38   0.100000E+01   0.000000E+00   Mo
  |    39   0.100000E+01   0.000000E+00   Se
  |    40   0.100000E+01   0.000000E+00   Se
  |    41   0.100000E+01   0.000000E+00   Mo
  |    42   0.100000E+01   0.000000E+00   Se
  |    43   0.100000E+01   0.000000E+00   Se
  |    44   0.100000E+01   0.000000E+00   Mo
  |    45   0.100000E+01   0.000000E+00   Se
  |    46   0.100000E+01   0.000000E+00   Se
  |    47   0.100000E+01   0.000000E+00   Mo
  |    48   0.100000E+01   0.000000E+00   Se
  |    49   0.100000E+01   0.000000E+00   Se
  |    50   0.100000E+01   0.000000E+00   Mo
  |    51   0.100000E+01   0.000000E+00   Se
  |    52   0.100000E+01   0.000000E+00   Se
  |    53   0.100000E+01   0.000000E+00   Mo
  |    54   0.100000E+01   0.000000E+00   Se
  |    55   0.100000E+01   0.000000E+00   Se
  |    56   0.100000E+01   0.000000E+00   Mo
  |    57   0.100000E+01   0.000000E+00   Se
  |    58   0.100000E+01   0.000000E+00   Se
  |    59   0.100000E+01   0.000000E+00   Mo
  |    60   0.100000E+01   0.000000E+00   Se
  |    61   0.100000E+01   0.000000E+00   Se
  |    62   0.100000E+01   0.000000E+00   Mo
  |    63   0.100000E+01   0.000000E+00   Se
  |    64   0.100000E+01   0.000000E+00   Se
  |    65   0.100000E+01   0.000000E+00   Mo
  |    66   0.100000E+01   0.000000E+00   Se
  |    67   0.100000E+01   0.000000E+00   Se
  |    68   0.100000E+01   0.000000E+00   Mo
  |    69   0.100000E+01   0.000000E+00   Se
  |    70   0.100000E+01   0.000000E+00   Se
  |    71   0.100000E+01   0.000000E+00   Mo
  |    72   0.100000E+01   0.000000E+00   Se
  |    73   0.100000E+01   0.000000E+00   Se
  |    74   0.100000E+01   0.000000E+00   Mo
  |    75   0.100000E+01   0.000000E+00   Se
  |    76   0.100000E+01   0.000000E+00   Se

 
  Finished reading input file 'control.in'.
 

------------------------------------------------------------
          Reading geometry description geometry.in.
------------------------------------------------------------
 
  Consistency checks for stacksize environment parameter are next.
 
  | Maximum stacksize for task 0: unlimited
  | Maximum stacksize for task 1: unlimited
  | Maximum stacksize for task 2: unlimited
  | Maximum stacksize for task 3: unlimited
  | Maximum stacksize for task 4: unlimited
  | Maximum stacksize for task 5: unlimited
  | Maximum stacksize for task 6: unlimited
  | Maximum stacksize for task 7: unlimited
  | Maximum stacksize for task 8: unlimited
  | Maximum stacksize for task 9: unlimited
  | Maximum stacksize for task 10: unlimited
  | Maximum stacksize for task 11: unlimited
  | Maximum stacksize for task 12: unlimited
  | Maximum stacksize for task 13: unlimited
  | Maximum stacksize for task 14: unlimited
  | Maximum stacksize for task 15: unlimited
  | Maximum stacksize for task 16: unlimited
  | Maximum stacksize for task 17: unlimited
  | Maximum stacksize for task 18: unlimited
  | Maximum stacksize for task 19: unlimited
  | Maximum stacksize for task 20: unlimited
  | Maximum stacksize for task 21: unlimited
  | Maximum stacksize for task 22: unlimited
  | Maximum stacksize for task 23: unlimited
  | Maximum stacksize for task 24: unlimited
  | Maximum stacksize for task 25: unlimited
  | Maximum stacksize for task 26: unlimited
  | Maximum stacksize for task 27: unlimited
  | Maximum stacksize for task 28: unlimited
  | Maximum stacksize for task 29: unlimited
  | Maximum stacksize for task 30: unlimited
  | Maximum stacksize for task 31: unlimited
  | Maximum stacksize for task 32: unlimited
  | Maximum stacksize for task 33: unlimited
  | Maximum stacksize for task 34: unlimited
  | Maximum stacksize for task 35: unlimited
  | Maximum stacksize for task 36: unlimited
  | Maximum stacksize for task 37: unlimited
  | Maximum stacksize for task 38: unlimited
  | Maximum stacksize for task 39: unlimited
  | Maximum stacksize for task 40: unlimited
  | Maximum stacksize for task 41: unlimited
  | Maximum stacksize for task 42: unlimited
  | Maximum stacksize for task 43: unlimited
  | Maximum stacksize for task 44: unlimited
  | Maximum stacksize for task 45: unlimited
  | Maximum stacksize for task 46: unlimited
  | Maximum stacksize for task 47: unlimited
  | Maximum stacksize for task 48: unlimited
  | Maximum stacksize for task 49: unlimited
  | Maximum stacksize for task 50: unlimited
  | Maximum stacksize for task 51: unlimited
  | Maximum stacksize for task 52: unlimited
  | Maximum stacksize for task 53: unlimited
  | Maximum stacksize for task 54: unlimited
  | Maximum stacksize for task 55: unlimited
  | Maximum stacksize for task 56: unlimited
  | Maximum stacksize for task 57: unlimited
  | Maximum stacksize for task 58: unlimited
  | Maximum stacksize for task 59: unlimited
  | Maximum stacksize for task 60: unlimited
  | Maximum stacksize for task 61: unlimited
  | Maximum stacksize for task 62: unlimited
  | Maximum stacksize for task 63: unlimited
  | Maximum stacksize for task 64: unlimited
  | Maximum stacksize for task 65: unlimited
  | Maximum stacksize for task 66: unlimited
  | Maximum stacksize for task 67: unlimited
  | Maximum stacksize for task 68: unlimited
  | Maximum stacksize for task 69: unlimited
  | Maximum stacksize for task 70: unlimited
  | Maximum stacksize for task 71: unlimited
  | Maximum stacksize for task 72: unlimited
  | Maximum stacksize for task 73: unlimited
  | Maximum stacksize for task 74: unlimited
  | Maximum stacksize for task 75: unlimited
  | Maximum stacksize for task 76: unlimited
  | Maximum stacksize for task 77: unlimited
  | Maximum stacksize for task 78: unlimited
  | Maximum stacksize for task 79: unlimited
  | Maximum stacksize for task 80: unlimited
  | Maximum stacksize for task 81: unlimited
  | Maximum stacksize for task 82: unlimited
  | Maximum stacksize for task 83: unlimited
  | Maximum stacksize for task 84: unlimited
  | Maximum stacksize for task 85: unlimited
  | Maximum stacksize for task 86: unlimited
  | Maximum stacksize for task 87: unlimited
  | Maximum stacksize for task 88: unlimited
  | Maximum stacksize for task 89: unlimited
  | Maximum stacksize for task 90: unlimited
  | Maximum stacksize for task 91: unlimited
  | Maximum stacksize for task 92: unlimited
  | Maximum stacksize for task 93: unlimited
  | Maximum stacksize for task 94: unlimited
  | Maximum stacksize for task 95: unlimited
  | Maximum stacksize for task 96: unlimited
  | Maximum stacksize for task 97: unlimited
  | Maximum stacksize for task 98: unlimited
  | Maximum stacksize for task 99: unlimited
  | Maximum stacksize for task 100: unlimited
  | Maximum stacksize for task 101: unlimited
  | Maximum stacksize for task 102: unlimited
  | Maximum stacksize for task 103: unlimited
  | Maximum stacksize for task 104: unlimited
  | Maximum stacksize for task 105: unlimited
  | Maximum stacksize for task 106: unlimited
  | Maximum stacksize for task 107: unlimited
  | Maximum stacksize for task 108: unlimited
  | Maximum stacksize for task 109: unlimited
  | Maximum stacksize for task 110: unlimited
  | Maximum stacksize for task 111: unlimited
  | Maximum stacksize for task 112: unlimited
  | Maximum stacksize for task 113: unlimited
  | Maximum stacksize for task 114: unlimited
  | Maximum stacksize for task 115: unlimited
  | Maximum stacksize for task 116: unlimited
  | Maximum stacksize for task 117: unlimited
  | Maximum stacksize for task 118: unlimited
  | Maximum stacksize for task 119: unlimited
  | Maximum stacksize for task 120: unlimited
  | Maximum stacksize for task 121: unlimited
  | Maximum stacksize for task 122: unlimited
  | Maximum stacksize for task 123: unlimited
  | Maximum stacksize for task 124: unlimited
  | Maximum stacksize for task 125: unlimited
  | Maximum stacksize for task 126: unlimited
  | Maximum stacksize for task 127: unlimited
  | Maximum stacksize for task 128: unlimited
  | Maximum stacksize for task 129: unlimited
  | Maximum stacksize for task 130: unlimited
  | Maximum stacksize for task 131: unlimited
  | Maximum stacksize for task 132: unlimited
  | Maximum stacksize for task 133: unlimited
  | Maximum stacksize for task 134: unlimited
  | Maximum stacksize for task 135: unlimited
  | Maximum stacksize for task 136: unlimited
  | Maximum stacksize for task 137: unlimited
  | Maximum stacksize for task 138: unlimited
  | Maximum stacksize for task 139: unlimited
  | Maximum stacksize for task 140: unlimited
  | Maximum stacksize for task 141: unlimited
  | Maximum stacksize for task 142: unlimited
  | Maximum stacksize for task 143: unlimited
  | Maximum stacksize for task 144: unlimited
  | Maximum stacksize for task 145: unlimited
  | Maximum stacksize for task 146: unlimited
  | Maximum stacksize for task 147: unlimited
  | Maximum stacksize for task 148: unlimited
  | Maximum stacksize for task 149: unlimited
  | Maximum stacksize for task 150: unlimited
  | Maximum stacksize for task 151: unlimited
  | Maximum stacksize for task 152: unlimited
  | Maximum stacksize for task 153: unlimited
  | Maximum stacksize for task 154: unlimited
  | Maximum stacksize for task 155: unlimited
  | Maximum stacksize for task 156: unlimited
  | Maximum stacksize for task 157: unlimited
  | Maximum stacksize for task 158: unlimited
  | Maximum stacksize for task 159: unlimited
  | Maximum stacksize for task 160: unlimited
  | Maximum stacksize for task 161: unlimited
  | Maximum stacksize for task 162: unlimited
  | Maximum stacksize for task 163: unlimited
  | Maximum stacksize for task 164: unlimited
  | Maximum stacksize for task 165: unlimited
  | Maximum stacksize for task 166: unlimited
  | Maximum stacksize for task 167: unlimited
  | Maximum stacksize for task 168: unlimited
  | Maximum stacksize for task 169: unlimited
  | Maximum stacksize for task 170: unlimited
  | Maximum stacksize for task 171: unlimited
  | Maximum stacksize for task 172: unlimited
  | Maximum stacksize for task 173: unlimited
  | Maximum stacksize for task 174: unlimited
  | Maximum stacksize for task 175: unlimited
  | Maximum stacksize for task 176: unlimited
  | Maximum stacksize for task 177: unlimited
  | Maximum stacksize for task 178: unlimited
  | Maximum stacksize for task 179: unlimited
  | Maximum stacksize for task 180: unlimited
  | Maximum stacksize for task 181: unlimited
  | Maximum stacksize for task 182: unlimited
  | Maximum stacksize for task 183: unlimited
  | Maximum stacksize for task 184: unlimited
  | Maximum stacksize for task 185: unlimited
  | Maximum stacksize for task 186: unlimited
  | Maximum stacksize for task 187: unlimited
  | Maximum stacksize for task 188: unlimited
  | Maximum stacksize for task 189: unlimited
  | Maximum stacksize for task 190: unlimited
  | Maximum stacksize for task 191: unlimited
  | Maximum stacksize for task 192: unlimited
  | Maximum stacksize for task 193: unlimited
  | Maximum stacksize for task 194: unlimited
  | Maximum stacksize for task 195: unlimited
  | Maximum stacksize for task 196: unlimited
  | Maximum stacksize for task 197: unlimited
  | Maximum stacksize for task 198: unlimited
  | Maximum stacksize for task 199: unlimited
  | Maximum stacksize for task 200: unlimited
  | Maximum stacksize for task 201: unlimited
  | Maximum stacksize for task 202: unlimited
  | Maximum stacksize for task 203: unlimited
  | Maximum stacksize for task 204: unlimited
  | Maximum stacksize for task 205: unlimited
  | Maximum stacksize for task 206: unlimited
  | Maximum stacksize for task 207: unlimited
  | Maximum stacksize for task 208: unlimited
  | Maximum stacksize for task 209: unlimited
  | Maximum stacksize for task 210: unlimited
  | Maximum stacksize for task 211: unlimited
  | Maximum stacksize for task 212: unlimited
  | Maximum stacksize for task 213: unlimited
  | Maximum stacksize for task 214: unlimited
  | Maximum stacksize for task 215: unlimited
  | Maximum stacksize for task 216: unlimited
  | Maximum stacksize for task 217: unlimited
  | Maximum stacksize for task 218: unlimited
  | Maximum stacksize for task 219: unlimited
  | Maximum stacksize for task 220: unlimited
  | Maximum stacksize for task 221: unlimited
  | Maximum stacksize for task 222: unlimited
  | Maximum stacksize for task 223: unlimited
  | Maximum stacksize for task 224: unlimited
  | Maximum stacksize for task 225: unlimited
  | Maximum stacksize for task 226: unlimited
  | Maximum stacksize for task 227: unlimited
  | Maximum stacksize for task 228: unlimited
  | Maximum stacksize for task 229: unlimited
  | Maximum stacksize for task 230: unlimited
  | Maximum stacksize for task 231: unlimited
  | Maximum stacksize for task 232: unlimited
  | Maximum stacksize for task 233: unlimited
  | Maximum stacksize for task 234: unlimited
  | Maximum stacksize for task 235: unlimited
  | Maximum stacksize for task 236: unlimited
  | Maximum stacksize for task 237: unlimited
  | Maximum stacksize for task 238: unlimited
  | Maximum stacksize for task 239: unlimited
  | Maximum stacksize for task 240: unlimited
  | Maximum stacksize for task 241: unlimited
  | Maximum stacksize for task 242: unlimited
  | Maximum stacksize for task 243: unlimited
  | Maximum stacksize for task 244: unlimited
  | Maximum stacksize for task 245: unlimited
  | Maximum stacksize for task 246: unlimited
  | Maximum stacksize for task 247: unlimited
  | Maximum stacksize for task 248: unlimited
  | Maximum stacksize for task 249: unlimited
  | Maximum stacksize for task 250: unlimited
  | Maximum stacksize for task 251: unlimited
  | Maximum stacksize for task 252: unlimited
  | Maximum stacksize for task 253: unlimited
  | Maximum stacksize for task 254: unlimited
  | Maximum stacksize for task 255: unlimited
  | Maximum stacksize for task 256: unlimited
  | Maximum stacksize for task 257: unlimited
  | Maximum stacksize for task 258: unlimited
  | Maximum stacksize for task 259: unlimited
  | Maximum stacksize for task 260: unlimited
  | Maximum stacksize for task 261: unlimited
  | Maximum stacksize for task 262: unlimited
  | Maximum stacksize for task 263: unlimited
  | Maximum stacksize for task 264: unlimited
  | Maximum stacksize for task 265: unlimited
  | Maximum stacksize for task 266: unlimited
  | Maximum stacksize for task 267: unlimited
  | Maximum stacksize for task 268: unlimited
  | Maximum stacksize for task 269: unlimited
  | Maximum stacksize for task 270: unlimited
  | Maximum stacksize for task 271: unlimited
  | Maximum stacksize for task 272: unlimited
  | Maximum stacksize for task 273: unlimited
  | Maximum stacksize for task 274: unlimited
  | Maximum stacksize for task 275: unlimited
  | Maximum stacksize for task 276: unlimited
  | Maximum stacksize for task 277: unlimited
  | Maximum stacksize for task 278: unlimited
  | Maximum stacksize for task 279: unlimited
  | Maximum stacksize for task 280: unlimited
  | Maximum stacksize for task 281: unlimited
  | Maximum stacksize for task 282: unlimited
  | Maximum stacksize for task 283: unlimited
  | Maximum stacksize for task 284: unlimited
  | Maximum stacksize for task 285: unlimited
  | Maximum stacksize for task 286: unlimited
  | Maximum stacksize for task 287: unlimited
  | Current stacksize for task 0: unlimited
  | Current stacksize for task 1: unlimited
  | Current stacksize for task 2: unlimited
  | Current stacksize for task 3: unlimited
  | Current stacksize for task 4: unlimited
  | Current stacksize for task 5: unlimited
  | Current stacksize for task 6: unlimited
  | Current stacksize for task 7: unlimited
  | Current stacksize for task 8: unlimited
  | Current stacksize for task 9: unlimited
  | Current stacksize for task 10: unlimited
  | Current stacksize for task 11: unlimited
  | Current stacksize for task 12: unlimited
  | Current stacksize for task 13: unlimited
  | Current stacksize for task 14: unlimited
  | Current stacksize for task 15: unlimited
  | Current stacksize for task 16: unlimited
  | Current stacksize for task 17: unlimited
  | Current stacksize for task 18: unlimited
  | Current stacksize for task 19: unlimited
  | Current stacksize for task 20: unlimited
  | Current stacksize for task 21: unlimited
  | Current stacksize for task 22: unlimited
  | Current stacksize for task 23: unlimited
  | Current stacksize for task 24: unlimited
  | Current stacksize for task 25: unlimited
  | Current stacksize for task 26: unlimited
  | Current stacksize for task 27: unlimited
  | Current stacksize for task 28: unlimited
  | Current stacksize for task 29: unlimited
  | Current stacksize for task 30: unlimited
  | Current stacksize for task 31: unlimited
  | Current stacksize for task 32: unlimited
  | Current stacksize for task 33: unlimited
  | Current stacksize for task 34: unlimited
  | Current stacksize for task 35: unlimited
  | Current stacksize for task 36: unlimited
  | Current stacksize for task 37: unlimited
  | Current stacksize for task 38: unlimited
  | Current stacksize for task 39: unlimited
  | Current stacksize for task 40: unlimited
  | Current stacksize for task 41: unlimited
  | Current stacksize for task 42: unlimited
  | Current stacksize for task 43: unlimited
  | Current stacksize for task 44: unlimited
  | Current stacksize for task 45: unlimited
  | Current stacksize for task 46: unlimited
  | Current stacksize for task 47: unlimited
  | Current stacksize for task 48: unlimited
  | Current stacksize for task 49: unlimited
  | Current stacksize for task 50: unlimited
  | Current stacksize for task 51: unlimited
  | Current stacksize for task 52: unlimited
  | Current stacksize for task 53: unlimited
  | Current stacksize for task 54: unlimited
  | Current stacksize for task 55: unlimited
  | Current stacksize for task 56: unlimited
  | Current stacksize for task 57: unlimited
  | Current stacksize for task 58: unlimited
  | Current stacksize for task 59: unlimited
  | Current stacksize for task 60: unlimited
  | Current stacksize for task 61: unlimited
  | Current stacksize for task 62: unlimited
  | Current stacksize for task 63: unlimited
  | Current stacksize for task 64: unlimited
  | Current stacksize for task 65: unlimited
  | Current stacksize for task 66: unlimited
  | Current stacksize for task 67: unlimited
  | Current stacksize for task 68: unlimited
  | Current stacksize for task 69: unlimited
  | Current stacksize for task 70: unlimited
  | Current stacksize for task 71: unlimited
  | Current stacksize for task 72: unlimited
  | Current stacksize for task 73: unlimited
  | Current stacksize for task 74: unlimited
  | Current stacksize for task 75: unlimited
  | Current stacksize for task 76: unlimited
  | Current stacksize for task 77: unlimited
  | Current stacksize for task 78: unlimited
  | Current stacksize for task 79: unlimited
  | Current stacksize for task 80: unlimited
  | Current stacksize for task 81: unlimited
  | Current stacksize for task 82: unlimited
  | Current stacksize for task 83: unlimited
  | Current stacksize for task 84: unlimited
  | Current stacksize for task 85: unlimited
  | Current stacksize for task 86: unlimited
  | Current stacksize for task 87: unlimited
  | Current stacksize for task 88: unlimited
  | Current stacksize for task 89: unlimited
  | Current stacksize for task 90: unlimited
  | Current stacksize for task 91: unlimited
  | Current stacksize for task 92: unlimited
  | Current stacksize for task 93: unlimited
  | Current stacksize for task 94: unlimited
  | Current stacksize for task 95: unlimited
  | Current stacksize for task 96: unlimited
  | Current stacksize for task 97: unlimited
  | Current stacksize for task 98: unlimited
  | Current stacksize for task 99: unlimited
  | Current stacksize for task 100: unlimited
  | Current stacksize for task 101: unlimited
  | Current stacksize for task 102: unlimited
  | Current stacksize for task 103: unlimited
  | Current stacksize for task 104: unlimited
  | Current stacksize for task 105: unlimited
  | Current stacksize for task 106: unlimited
  | Current stacksize for task 107: unlimited
  | Current stacksize for task 108: unlimited
  | Current stacksize for task 109: unlimited
  | Current stacksize for task 110: unlimited
  | Current stacksize for task 111: unlimited
  | Current stacksize for task 112: unlimited
  | Current stacksize for task 113: unlimited
  | Current stacksize for task 114: unlimited
[...]
  |    34       41.931406        0.068594        8.194237       18.729499       14.921486        0.086184
  |    35       33.851590        0.148410        7.757227       15.626173       10.392973        0.075217
  |    36       34.297508       -0.297508        7.959949       16.239962       10.076301        0.021296
  |    37       34.053283       -0.053283        7.888654       15.935773       10.183961        0.044896
  |    38       41.905628        0.094372        8.194994       18.730185       14.894385        0.086064
  |    39       34.020692       -0.020692        7.889835       15.894939       10.188974        0.046943
  |    40       34.050506       -0.050506        7.888111       15.929210       10.186682        0.046502
  |    41       41.901846        0.098154        8.193833       18.729087       14.892297        0.086628
  |    42       34.044775       -0.044775        7.888190       15.922576       10.187396        0.046613
  |    43       34.049092       -0.049092        7.887427       15.927040       10.187861        0.046763
  |    44       41.901823        0.098177        8.193809       18.729087       14.892299        0.086628
  |    45       34.044776       -0.044776        7.888193       15.922576       10.187395        0.046612
  |    46       34.049098       -0.049098        7.887430       15.927039       10.187865        0.046764
  |    47       41.903516        0.096484        8.194564       18.729885       14.892145        0.086923
  |    48       34.044008       -0.044008        7.888303       15.922747       10.186624        0.046335
  |    49       34.049697       -0.049697        7.887412       15.929474       10.186485        0.046325
  |    50       41.931407        0.068593        8.194241       18.729501       14.921480        0.086185
  |    51       34.020676       -0.020676        7.889827       15.894933       10.188973        0.046943
  |    52       34.050452       -0.050452        7.888089       15.929177       10.186684        0.046502
  |    53       41.931337        0.068663        8.194185       18.729504       14.921466        0.086182
  |    54       34.020683       -0.020683        7.889835       15.894924       10.188979        0.046944
  |    55       34.050503       -0.050503        7.888111       15.929211       10.186680        0.046501
  |    56       41.903526        0.096474        8.194547       18.729902       14.892155        0.086921
  |    57       34.044034       -0.044034        7.888306       15.922765       10.186626        0.046336
  |    58       34.049729       -0.049729        7.887424       15.929493       10.186486        0.046326
  |    59       41.903212        0.096788        8.194270       18.729340       14.892931        0.086671
  |    60       34.046153       -0.046153        7.887985       15.924385       10.187221        0.046562
  |    61       34.049837       -0.049837        7.887493       15.928835       10.187003        0.046505
  |    62       41.902384        0.097616        8.194136       18.729599       14.891949        0.086700
  |    63       34.046149       -0.046149        7.887985       15.924386       10.187218        0.046560
  |    64       34.049828       -0.049828        7.887490       15.928827       10.187005        0.046506
  |    65       41.903586        0.096414        8.194608       18.729889       14.892167        0.086922
  |    66       34.044786       -0.044786        7.888194       15.922580       10.187398        0.046613
  |    67       34.049098       -0.049098        7.887428       15.927040       10.187866        0.046765
  |    68       41.905622        0.094378        8.194992       18.730185       14.894382        0.086063
  |    69       34.045533       -0.045533        7.888454       15.924232       10.186531        0.046315
  |    70       34.049878       -0.049878        7.887382       15.928139       10.187710        0.046648
  |    71       41.903522        0.096478        8.194542       18.729901       14.892158        0.086921
  |    72       34.044775       -0.044775        7.888190       15.922574       10.187398        0.046613
  |    73       34.049092       -0.049092        7.887426       15.927040       10.187862        0.046764
  |    74       41.902421        0.097579        8.194166       18.729599       14.891956        0.086701
  |    75       34.046153       -0.046153        7.887985       15.924384       10.187222        0.046562
  |    76       34.049835       -0.049835        7.887492       15.928832       10.187005        0.046506
  |
  | Total     2784.000000       -0.000000
 
  Summary of the per-atom spin analysis:
  |
  |  atom   spin      l=0         l=1         l=2         l=3
  |     1   -0.000001   -0.000000   -0.000000   -0.000001    0.000000
  |     2    0.000004    0.000000    0.000003   -0.000000   -0.000000
  |     3    0.000004    0.000000    0.000003   -0.000000   -0.000000
  |     4    0.000006    0.000000    0.000001    0.000005   -0.000000
  |     5    0.000001    0.000000    0.000001    0.000000    0.000000
  |     6    0.000001    0.000000    0.000001    0.000000    0.000000
  |     7    0.000001    0.000000    0.000000    0.000001    0.000000
  |     8    0.000001    0.000000    0.000001    0.000000    0.000000
  |     9    0.000001    0.000000    0.000001    0.000000    0.000000
  |    10    0.000001    0.000000    0.000000    0.000001    0.000000
  |    11    0.000001    0.000000    0.000001    0.000000    0.000000
  |    12    0.000001    0.000000    0.000001    0.000000    0.000000
  |    13    0.000006    0.000000    0.000001    0.000005   -0.000000
  |    14    0.000001    0.000000    0.000001    0.000000    0.000000
  |    15    0.000001    0.000000    0.000001    0.000000    0.000000
  |    16   -0.000015   -0.000001   -0.000001   -0.000012    0.000000
  |    17    0.000001    0.000000    0.000001    0.000000   -0.000000
  |    18    0.000001    0.000000    0.000001    0.000000   -0.000000
  |    19   -0.000015   -0.000001   -0.000001   -0.000012    0.000000
  |    20    0.000001    0.000000    0.000001    0.000000   -0.000000
  |    21    0.000001    0.000000    0.000001    0.000000   -0.000000
  |    22    0.000001    0.000000    0.000000    0.000001    0.000000
  |    23    0.000000    0.000000    0.000000    0.000000    0.000000
  |    24    0.000000    0.000000    0.000000    0.000000    0.000000
  |    25   -0.000006   -0.000000   -0.000001   -0.000005    0.000000
  |    26    0.000001    0.000000    0.000001    0.000000    0.000000
  |    27    0.000001    0.000000    0.000001    0.000000    0.000000
  |    28    0.000001    0.000000    0.000000    0.000001    0.000000
  |    29    0.000000    0.000000    0.000000    0.000000    0.000000
  |    30    0.000000    0.000000    0.000000    0.000000    0.000000
  |    31   -0.000006   -0.000000   -0.000001   -0.000005    0.000000
  |    32    0.000001    0.000000    0.000001    0.000000   -0.000000
  |    33    0.000001    0.000000    0.000001    0.000000   -0.000000
  |    34    0.000009    0.000000    0.000001    0.000008    0.000000
  |    35   -0.000001   -0.000000   -0.000001    0.000000    0.000000
  |    36   -0.000001   -0.000000   -0.000001    0.000000    0.000000
  |    37   -0.000001   -0.000000   -0.000001    0.000000    0.000000
  |    38   -0.000006   -0.000000   -0.000001   -0.000005    0.000000
  |    39    0.000001    0.000000    0.000001    0.000000   -0.000000
  |    40    0.000001    0.000000    0.000001    0.000000   -0.000000
  |    41    0.000001    0.000000    0.000000    0.000001    0.000000
  |    42    0.000001    0.000000    0.000001    0.000000    0.000000
  |    43    0.000001    0.000000    0.000001    0.000000    0.000000
  |    44    0.000001    0.000000    0.000000    0.000001    0.000000
  |    45    0.000001    0.000000    0.000001    0.000000    0.000000
  |    46    0.000001    0.000000    0.000001    0.000000    0.000000
  |    47   -0.000015   -0.000001   -0.000001   -0.000012    0.000000
  |    48    0.000004    0.000000    0.000003   -0.000000   -0.000000
  |    49    0.000004    0.000000    0.000003   -0.000000   -0.000000
  |    50    0.000009    0.000000    0.000001    0.000008    0.000000
  |    51    0.000001    0.000000    0.000001    0.000000   -0.000000
  |    52    0.000001    0.000000    0.000001    0.000000   -0.000000
  |    53    0.000009    0.000000    0.000001    0.000008    0.000000
  |    54    0.000001    0.000000    0.000001    0.000000   -0.000000
  |    55    0.000001    0.000000    0.000001    0.000000   -0.000000
  |    56   -0.000015   -0.000001   -0.000001   -0.000012    0.000000
  |    57    0.000004    0.000000    0.000003   -0.000000   -0.000000
  |    58    0.000004    0.000000    0.000003   -0.000000   -0.000000
  |    59    0.000006    0.000000    0.000001    0.000005   -0.000000
  |    60   -0.000000    0.000000   -0.000000    0.000000    0.000000
  |    61   -0.000000    0.000000   -0.000000    0.000000    0.000000
  |    62   -0.000001   -0.000000   -0.000000   -0.000001    0.000000
  |    63   -0.000000    0.000000   -0.000000    0.000000    0.000000
  |    64   -0.000000    0.000000   -0.000000    0.000000    0.000000
  |    65   -0.000015   -0.000001   -0.000001   -0.000012    0.000000
  |    66    0.000001    0.000000    0.000001    0.000000    0.000000
  |    67    0.000001    0.000000    0.000001    0.000000    0.000000
  |    68   -0.000006   -0.000000   -0.000001   -0.000005    0.000000
  |    69    0.000000    0.000000    0.000000    0.000000    0.000000
  |    70    0.000000    0.000000    0.000000    0.000000    0.000000
  |    71   -0.000015   -0.000001   -0.000001   -0.000012    0.000000
  |    72    0.000001    0.000000    0.000001    0.000000    0.000000
  |    73    0.000001    0.000000    0.000001    0.000000    0.000000
  |    74   -0.000001   -0.000000   -0.000000   -0.000001    0.000000
  |    75   -0.000000    0.000000   -0.000000    0.000000    0.000000
  |    76   -0.000000    0.000000   -0.000000    0.000000    0.000000
  |
  | Total   -0.000000
 
  Calculating angular momentum projected density of states ...
  | Chemical potential is  -4.506025 eV.
  | writing   projected DOS (shifted by the chemical potential) for species Se to file Se_l_proj_dos_tetrahedron.dat.
  | writing   projected DOS (raw data) for species Se to file Se_l_proj_dos_tetrahedron_raw.dat.
  | writing   projected DOS (shifted by the chemical potential) for species S to file S_l_proj_dos_tetrahedron.dat.
  | writing   projected DOS (raw data) for species S to file S_l_proj_dos_tetrahedron_raw.dat.
  | writing   projected DOS (shifted by the chemical potential) for species Mo to file Mo_l_proj_dos_tetrahedron.dat.
  | writing   projected DOS (raw data) for species Mo to file Mo_l_proj_dos_tetrahedron_raw.dat.
  | writing   projected DOS (shifted by the chemical potential) for species W to file W_l_proj_dos_tetrahedron.dat.
  | writing   projected DOS (raw data) for species W to file W_l_proj_dos_tetrahedron_raw.dat.

  Mulliken analysis                                       :  max(cpu_time)    wall_clock(cpu1)
  | Time for Mulliken analysis (scalar relativistic)      :          0.857               0.914
  | Time for Mulliken analysis (spin-orbit coupled)       :          2.163               2.169
  | Total time for Mulliken analysis                      :          3.019               3.083
------------------------------------------------------------

------------------------------------------------------------------------------
  Final output of selected total energy values:

  The following output summarizes some interesting total energy values
  at the end of a run (AFTER all relaxation, molecular dynamics, etc.).

  | Total energy of the DFT / Hartree-Fock s.c.f. calculation      :       -6174939.697255696 eV
  | Final zero-broadening corrected energy (caution - metals only) :       -6174939.697255696 eV
  | Total energy after non-SC SOC correction (DO NOT USE)          :       -6174943.757467008 eV
  | For reference only, the value of 1 Hartree used in FHI-aims is :             27.211384500 eV
  | For reference only, the overall average (free atom contribution
  | + realspace contribution) of the electrostatic potential after
  | s.c.f. convergence is                                          :             -1.243263983 eV

  Before relying on these values, please be sure to understand exactly which
  total energy value is referred to by a given number. Different objects may
  all carry the same name 'total energy'. Definitions:

  Total energy of the DFT / Hartree-Fock s.c.f. calculation:
  | Note that this energy does not include ANY quantities calculated after the
  | s.c.f. cycle, in particular not ANY RPA, MP2, etc. many-body perturbation terms.

  Final zero-broadening corrected energy:
  | For metallic systems only, a broadening of the occupation numbers at the Fermi
  | level can be extrapolated back to zero broadening by an electron-gas inspired
  | formula. For all systems that are not real metals, this value can be
  | meaningless and should be avoided.

------------------------------------------------------------------------------
  Methods described in the following list of references were used in this FHI-aims run.
  If you publish the results, please make sure to cite these reference if they apply.
  FHI-aims is an academic code, and for our developers (often, Ph.D. students
  and postdocs), scientific credit in the community is essential.
  Thank you for helping us!

  For any use of FHI-aims, please cite:

    Volker Blum, Ralf Gehrke, Felix Hanke, Paula Havu, Ville Havu,
    Xinguo Ren, Karsten Reuter, and Matthias Scheffler
    'Ab initio molecular simulations with numeric atom-centered orbitals'
    Computer Physics Communications 180, 2175-2196 (2009)
    http://doi.org/10.1016/j.cpc.2009.06.022


  For Hartree-Fock, hybrid functionals, or many-body perturbation theory used in your run, please cite:

    Xinguo Ren, Patrick Rinke, Volker Blum, Juergen Wieferink, Alex Tkatchenko,
    Andrea Sanfilippo, Karsten Reuter, and Matthias Scheffler,
    'Resolution-of-identity approach to Hartree-Fock, hybrid density functionals,
    RPA, MP2, and GW with numeric atom-centered orbital basis functions'
    New Journal of Physics 14, 053020 (2012).
    http://doi.org/10.1088/1367-2630/14/5/053020


  The provided symmetry information was generated with SPGlib:

    Atsushi Togo, Yusuke Seto, Dimitar Pashov
    SPGlib 1.7.3 obtained from http://spglib.sourceforge.net
    Copyright (C) 2008 Atsushi Togo


  For second-variational spin-orbit coupling used in your run, please cite:

    William P. Huhn and Volker Blum,
    'One-hundred-three compound band-structure benchmark of post-self-consistent'
    'spin-orbit coupling treatments in density functional theory'
    Phys. Rev. Materials 1, 033803 (2017).


  The ELSI infrastructure was used in your run to solve the Kohn-Sham electronic structure.
  Please check out http://elsi-interchange.org to learn more.
  If scalability is important for your project, please acknowledge ELSI by citing:

    V. W-z. Yu, F. Corsetti, A. Garcia, W. P. Huhn, M. Jacquelin, W. Jia,
    B. Lange, L. Lin, J. Lu, W. Mi, A. Seifitokaldani, A. Vazquez-Mayagoitia,
    C. Yang, H. Yang, and V. Blum
    'ELSI: A unified software interface for Kohn-Sham electronic structure solvers'
    Computer Physics Communications 222, 267-285 (2018).
    http://doi.org/10.1016/j.cpc.2017.09.007


  For the real-space grid partitioning and parallelization used in this calculation, please cite:

    Ville Havu, Volker Blum, Paula Havu, and Matthias Scheffler,
    'Efficient O(N) integration for all-electron electronic structure calculation'
    'using numerically tabulated basis functions'
    Journal of Computational Physics 228, 8367-8379 (2009).
    http://doi.org/10.1016/j.jcp.2009.08.008


  The high-level electronic structure method used in your calculation
  employed our efficient localized resolution of identity for the Coulomb operator.
  Some calculations, especially large-scale hybrid density functional theory,
  are only possible thanks to this development. For this feature, please cite:

    Arvid Ihrig, Juergen Wieferink, Igor Ying Zhang, Matti Ropo, Xinguo Ren,
    Patrick Rinke, Matthias Scheffler, and Volker Blum,
    'Accurate localized resolution of identity approach for linear-scaling
    hybrid density functionals and for many-body perturbation theory'
    New Journal of Physics 117, 093020 (2015).
    http://doi.org/10.1088/1367-2630/17/9/093020

  Of course, there are many other important community references, e.g., those cited in the
  above references. Our list is limited to references that describe implementations in the
  FHI-aims code. The reason is purely practical (length of this list) - please credit others as well.

------------------------------------------------------------
          Leaving FHI-aims.
          Date     :  20220930, Time     :  133731.859

          Computational steps:
          | Number of self-consistency cycles          :           26
          | Number of SCF (re)initializations          :            1

          Detailed time accounting                     :  max(cpu_time)    wall_clock(cpu1)
          | Total time                                  :     2728.177 s        2728.260 s
          | Preparation time                            :        1.354 s           1.353 s
          | Boundary condition initalization            :        0.815 s           0.814 s
          | Grid partitioning                           :        2.858 s           2.859 s
          | Preloading free-atom quantities on grid     :        1.729 s           1.730 s
          | Free-atom superposition energy              :        0.058 s           0.058 s
          | Total time for integrations                 :       39.492 s          39.492 s
          | Product basis setup: Total time             :      171.517 s         171.523 s
          | Total time evaluating exchange matrix       :     2240.343 s        2239.616 s
          | Total time for solution of K.-S. equations  :      125.507 s         125.513 s
          | Total time for density update               :       85.249 s          85.246 s
          | Total time for mixing                       :        0.212 s           0.206 s
          | Total time for Hartree multipole update     :        0.341 s           0.340 s
          | Total time for Hartree multipole sum        :       35.432 s          35.434 s
          | Total time for total energy evaluation      :        0.061 s           0.071 s
          | Total time for scaled ZORA corrections      :        0.000 s           0.000 s
          | Total time for vdW correction               :        5.093 s           5.094 s
          | Total time for perturbative SOC             :       15.765 s          15.765 s
          | Total time for Mulliken analysis            :        3.050 s           3.083 s

          Partial memory accounting:
          | Residual value for overall tracked memory usage across tasks:     0.000000 MB (should be 0.000000 MB)
          | Peak values for overall tracked memory usage:
          |   Minimum:      345.203 MB (on task 140 after allocating potential_shell)
          |   Maximum:      501.182 MB (on task 111 after allocating potential_shell)
          |   Average:      402.344 MB
          | Largest tracked array allocation:
          |   Minimum:       82.925 MB (soc_matrix on task   4)
          |   Maximum:      216.864 MB (ovlp3fn for atom on task 111)
          |   Average:      124.114 MB
          Note:  These values currently only include a subset of arrays which are explicitly tracked.
          The "true" memory usage will be greater.

          Have a nice day.
------------------------------------------------------------
