------------------------------------------------------------
          Invoking FHI-aims ...

          When using FHI-aims, please cite the following reference:

            Volker Blum, Ralf Gehrke, Felix Hanke, Paula Havu,
            Ville Havu, Xinguo Ren, Karsten Reuter, and Matthias Scheffler,
            'Ab Initio Molecular Simulations with Numeric Atom-Centered Orbitals',
            Computer Physics Communications 180, 2175-2196 (2009)

          In addition, many other developments in FHI-aims are likely important for
          your particular application. A partial list of references is given at the end of
          this file. Thank you for giving credit to the authors of these developments.

          For any questions about FHI-aims, please visit our slack channel at

            https://fhi-aims.slack.com

          and our main development and support site at

            https://aims-git.rz-berlin.mpg.de .

          The latter site, in particular, has a wiki to collect information, as well
          as an issue tracker to log discussions, suggest improvements, and report issues
          or bugs. https://aims-git.rz-berlin.mpg.de is also the main development site
          of the project and all new and updated code versions can be obtained there.
          Please send an email to aims-coordinators@fhi-berlin.mpg.de and we will add
          you to these sites. They are for you and everyone is welcome there.

------------------------------------------------------------



  Date     :  20220427, Time     :  111552.069
  Time zero on CPU 1             :   0.478718000000000E+00  s.
  Internal wall clock time zero  :           420290152.069  s.

  FHI-aims created a unique identifier for this run for later identification
  aims_uuid : 732BA92C-A349-4447-A92A-FFC92D675773

  Build configuration of the current instance of FHI-aims
  -------------------------------------------------------
  FHI-aims version      : 220405
  Commit number         : dec698196
  CMake host system     : Linux-5.3.18-24.99-default
  CMake version         : 3.22.0
  Fortran compiler      : /mpcdf/soft/SLE_15/packages/x86_64/intel_oneapi/2021.4/mpi/2021.4.0/bin/mpiifort (Intel) version 2021.4.0.20210910
  Fortran compiler flags: -O3 -ip -fp-model precise
  C compiler            : /mpcdf/soft/SLE_15/packages/x86_64/intel/2021.4.0/bin/icc (Intel) version 2021.4.0.20210910
  C compiler flags      : -O3 -ip -fp-model precise
  C++ compiler          : /mpcdf/soft/SLE_15/packages/x86_64/intel/2021.4.0/bin/icpc (Intel) version 2021.4.0.20210910
  C++ compiler flags    : -O3 -ip -fp-model precise
  Using MPI
  Using ScaLAPACK
  Using LibXC
  Using i-PI
  Using RLSY
  Linking against: /mpcdf/soft/SLE_15/packages/x86_64/intel_oneapi/2021.4/mkl/latest/lib/intel64/libmkl_intel_lp64.so
                   /mpcdf/soft/SLE_15/packages/x86_64/intel_oneapi/2021.4/mkl/latest/lib/intel64/libmkl_sequential.so
                   /mpcdf/soft/SLE_15/packages/x86_64/intel_oneapi/2021.4/mkl/latest/lib/intel64/libmkl_core.so
                   /mpcdf/soft/SLE_15/packages/x86_64/intel_oneapi/2021.4/mkl/latest/lib/intel64/libmkl_blacs_intelmpi_lp64.so
                   /mpcdf/soft/SLE_15/packages/x86_64/intel_oneapi/2021.4/mkl/latest/lib/intel64/libmkl_scalapack_lp64.so

  Using      288 parallel tasks.
  Task        0 on host ravg1022 reporting.
  Task        1 on host ravg1022 reporting.
  Task        2 on host ravg1022 reporting.
  Task        3 on host ravg1022 reporting.
  Task        4 on host ravg1022 reporting.
  Task        5 on host ravg1022 reporting.
  Task        6 on host ravg1022 reporting.
  Task        7 on host ravg1022 reporting.
  Task        8 on host ravg1022 reporting.
  Task        9 on host ravg1022 reporting.
  Task       10 on host ravg1022 reporting.
  Task       11 on host ravg1022 reporting.
  Task       12 on host ravg1022 reporting.
  Task       13 on host ravg1022 reporting.
  Task       14 on host ravg1022 reporting.
  Task       15 on host ravg1022 reporting.
  Task       16 on host ravg1022 reporting.
  Task       17 on host ravg1022 reporting.
  Task       18 on host ravg1022 reporting.
  Task       19 on host ravg1022 reporting.
  Task       20 on host ravg1022 reporting.
  Task       21 on host ravg1022 reporting.
  Task       22 on host ravg1022 reporting.
  Task       23 on host ravg1022 reporting.
  Task       24 on host ravg1022 reporting.
  Task       25 on host ravg1022 reporting.
  Task       26 on host ravg1022 reporting.
  Task       27 on host ravg1022 reporting.
  Task       28 on host ravg1022 reporting.
  Task       29 on host ravg1022 reporting.
  Task       30 on host ravg1022 reporting.
  Task       31 on host ravg1022 reporting.
  Task       32 on host ravg1022 reporting.
  Task       33 on host ravg1022 reporting.
  Task       34 on host ravg1022 reporting.
  Task       35 on host ravg1022 reporting.
  Task       36 on host ravg1022 reporting.
  Task       37 on host ravg1022 reporting.
  Task       38 on host ravg1022 reporting.
  Task       39 on host ravg1022 reporting.
  Task       40 on host ravg1022 reporting.
  Task       41 on host ravg1022 reporting.
  Task       42 on host ravg1022 reporting.
  Task       43 on host ravg1022 reporting.
  Task       44 on host ravg1022 reporting.
  Task       45 on host ravg1022 reporting.
  Task       46 on host ravg1022 reporting.
  Task       47 on host ravg1022 reporting.
  Task       48 on host ravg1022 reporting.
  Task       49 on host ravg1022 reporting.
  Task       50 on host ravg1022 reporting.
  Task       51 on host ravg1022 reporting.
  Task       52 on host ravg1022 reporting.
  Task       53 on host ravg1022 reporting.
  Task       54 on host ravg1022 reporting.
  Task       55 on host ravg1022 reporting.
  Task       56 on host ravg1022 reporting.
  Task       57 on host ravg1022 reporting.
  Task       58 on host ravg1022 reporting.
  Task       59 on host ravg1022 reporting.
  Task       60 on host ravg1022 reporting.
  Task       61 on host ravg1022 reporting.
  Task       62 on host ravg1022 reporting.
  Task       63 on host ravg1022 reporting.
  Task       64 on host ravg1022 reporting.
  Task       65 on host ravg1022 reporting.
  Task       66 on host ravg1022 reporting.
  Task       67 on host ravg1022 reporting.
  Task       68 on host ravg1022 reporting.
  Task       69 on host ravg1022 reporting.
  Task       70 on host ravg1022 reporting.
  Task       71 on host ravg1022 reporting.
  Task       72 on host ravg1060 reporting.
  Task       73 on host ravg1060 reporting.
  Task       74 on host ravg1060 reporting.
  Task       75 on host ravg1060 reporting.
  Task       76 on host ravg1060 reporting.
  Task       77 on host ravg1060 reporting.
  Task       78 on host ravg1060 reporting.
  Task       79 on host ravg1060 reporting.
  Task       80 on host ravg1060 reporting.
  Task       81 on host ravg1060 reporting.
  Task       82 on host ravg1060 reporting.
  Task       83 on host ravg1060 reporting.
  Task       84 on host ravg1060 reporting.
  Task       85 on host ravg1060 reporting.
  Task       86 on host ravg1060 reporting.
  Task       87 on host ravg1060 reporting.
  Task       88 on host ravg1060 reporting.
  Task       89 on host ravg1060 reporting.
  Task       90 on host ravg1060 reporting.
  Task       91 on host ravg1060 reporting.
  Task       92 on host ravg1060 reporting.
  Task       93 on host ravg1060 reporting.
  Task       94 on host ravg1060 reporting.
  Task       95 on host ravg1060 reporting.
  Task       96 on host ravg1060 reporting.
  Task       97 on host ravg1060 reporting.
  Task       98 on host ravg1060 reporting.
  Task       99 on host ravg1060 reporting.
  Task      100 on host ravg1060 reporting.
  Task      101 on host ravg1060 reporting.
  Task      102 on host ravg1060 reporting.
  Task      103 on host ravg1060 reporting.
  Task      104 on host ravg1060 reporting.
  Task      105 on host ravg1060 reporting.
  Task      106 on host ravg1060 reporting.
  Task      107 on host ravg1060 reporting.
  Task      108 on host ravg1060 reporting.
  Task      109 on host ravg1060 reporting.
  Task      110 on host ravg1060 reporting.
  Task      111 on host ravg1060 reporting.
  Task      112 on host ravg1060 reporting.
  Task      113 on host ravg1060 reporting.
  Task      114 on host ravg1060 reporting.
  Task      115 on host ravg1060 reporting.
  Task      116 on host ravg1060 reporting.
  Task      117 on host ravg1060 reporting.
  Task      118 on host ravg1060 reporting.
  Task      119 on host ravg1060 reporting.
  Task      120 on host ravg1060 reporting.
  Task      121 on host ravg1060 reporting.
  Task      122 on host ravg1060 reporting.
  Task      123 on host ravg1060 reporting.
  Task      124 on host ravg1060 reporting.
  Task      125 on host ravg1060 reporting.
  Task      126 on host ravg1060 reporting.
  Task      127 on host ravg1060 reporting.
  Task      128 on host ravg1060 reporting.
  Task      129 on host ravg1060 reporting.
  Task      130 on host ravg1060 reporting.
  Task      131 on host ravg1060 reporting.
  Task      132 on host ravg1060 reporting.
  Task      133 on host ravg1060 reporting.
  Task      134 on host ravg1060 reporting.
  Task      135 on host ravg1060 reporting.
  Task      136 on host ravg1060 reporting.
  Task      137 on host ravg1060 reporting.
  Task      138 on host ravg1060 reporting.
  Task      139 on host ravg1060 reporting.
  Task      140 on host ravg1060 reporting.
  Task      141 on host ravg1060 reporting.
  Task      142 on host ravg1060 reporting.
  Task      143 on host ravg1060 reporting.
  Task      144 on host ravg1093 reporting.
  Task      145 on host ravg1093 reporting.
  Task      146 on host ravg1093 reporting.
  Task      147 on host ravg1093 reporting.
  Task      148 on host ravg1093 reporting.
  Task      149 on host ravg1093 reporting.
  Task      150 on host ravg1093 reporting.
  Task      151 on host ravg1093 reporting.
  Task      152 on host ravg1093 reporting.
  Task      153 on host ravg1093 reporting.
  Task      154 on host ravg1093 reporting.
  Task      155 on host ravg1093 reporting.
  Task      156 on host ravg1093 reporting.
  Task      157 on host ravg1093 reporting.
  Task      158 on host ravg1093 reporting.
  Task      159 on host ravg1093 reporting.
  Task      160 on host ravg1093 reporting.
  Task      161 on host ravg1093 reporting.
  Task      162 on host ravg1093 reporting.
  Task      163 on host ravg1093 reporting.
  Task      164 on host ravg1093 reporting.
  Task      165 on host ravg1093 reporting.
  Task      166 on host ravg1093 reporting.
  Task      167 on host ravg1093 reporting.
  Task      168 on host ravg1093 reporting.
  Task      169 on host ravg1093 reporting.
  Task      170 on host ravg1093 reporting.
  Task      171 on host ravg1093 reporting.
  Task      172 on host ravg1093 reporting.
  Task      173 on host ravg1093 reporting.
  Task      174 on host ravg1093 reporting.
  Task      175 on host ravg1093 reporting.
  Task      176 on host ravg1093 reporting.
  Task      177 on host ravg1093 reporting.
  Task      178 on host ravg1093 reporting.
  Task      179 on host ravg1093 reporting.
  Task      180 on host ravg1093 reporting.
  Task      181 on host ravg1093 reporting.
  Task      182 on host ravg1093 reporting.
  Task      183 on host ravg1093 reporting.
  Task      184 on host ravg1093 reporting.
  Task      185 on host ravg1093 reporting.
  Task      186 on host ravg1093 reporting.
  Task      187 on host ravg1093 reporting.
  Task      188 on host ravg1093 reporting.
  Task      189 on host ravg1093 reporting.
  Task      190 on host ravg1093 reporting.
  Task      191 on host ravg1093 reporting.
  Task      192 on host ravg1093 reporting.
  Task      193 on host ravg1093 reporting.
  Task      194 on host ravg1093 reporting.
  Task      195 on host ravg1093 reporting.
  Task      196 on host ravg1093 reporting.
  Task      197 on host ravg1093 reporting.
  Task      198 on host ravg1093 reporting.
  Task      199 on host ravg1093 reporting.
  Task      200 on host ravg1093 reporting.
  Task      201 on host ravg1093 reporting.
  Task      202 on host ravg1093 reporting.
  Task      203 on host ravg1093 reporting.
  Task      204 on host ravg1093 reporting.
  Task      205 on host ravg1093 reporting.
  Task      206 on host ravg1093 reporting.
  Task      207 on host ravg1093 reporting.
  Task      208 on host ravg1093 reporting.
  Task      209 on host ravg1093 reporting.
  Task      210 on host ravg1093 reporting.
  Task      211 on host ravg1093 reporting.
  Task      212 on host ravg1093 reporting.
  Task      213 on host ravg1093 reporting.
  Task      214 on host ravg1093 reporting.
  Task      215 on host ravg1093 reporting.
  Task      216 on host ravg1110 reporting.
  Task      217 on host ravg1110 reporting.
  Task      218 on host ravg1110 reporting.
  Task      219 on host ravg1110 reporting.
  Task      220 on host ravg1110 reporting.
  Task      221 on host ravg1110 reporting.
  Task      222 on host ravg1110 reporting.
  Task      223 on host ravg1110 reporting.
  Task      224 on host ravg1110 reporting.
  Task      225 on host ravg1110 reporting.
  Task      226 on host ravg1110 reporting.
  Task      227 on host ravg1110 reporting.
  Task      228 on host ravg1110 reporting.
  Task      229 on host ravg1110 reporting.
  Task      230 on host ravg1110 reporting.
  Task      231 on host ravg1110 reporting.
  Task      232 on host ravg1110 reporting.
  Task      233 on host ravg1110 reporting.
  Task      234 on host ravg1110 reporting.
  Task      235 on host ravg1110 reporting.
  Task      236 on host ravg1110 reporting.
  Task      237 on host ravg1110 reporting.
  Task      238 on host ravg1110 reporting.
  Task      239 on host ravg1110 reporting.
  Task      240 on host ravg1110 reporting.
  Task      241 on host ravg1110 reporting.
  Task      242 on host ravg1110 reporting.
  Task      243 on host ravg1110 reporting.
  Task      244 on host ravg1110 reporting.
  Task      245 on host ravg1110 reporting.
  Task      246 on host ravg1110 reporting.
  Task      247 on host ravg1110 reporting.
  Task      248 on host ravg1110 reporting.
  Task      249 on host ravg1110 reporting.
  Task      250 on host ravg1110 reporting.
  Task      251 on host ravg1110 reporting.
  Task      252 on host ravg1110 reporting.
  Task      253 on host ravg1110 reporting.
  Task      254 on host ravg1110 reporting.
  Task      255 on host ravg1110 reporting.
  Task      256 on host ravg1110 reporting.
  Task      257 on host ravg1110 reporting.
  Task      258 on host ravg1110 reporting.
  Task      259 on host ravg1110 reporting.
  Task      260 on host ravg1110 reporting.
  Task      261 on host ravg1110 reporting.
  Task      262 on host ravg1110 reporting.
  Task      263 on host ravg1110 reporting.
  Task      264 on host ravg1110 reporting.
  Task      265 on host ravg1110 reporting.
  Task      266 on host ravg1110 reporting.
  Task      267 on host ravg1110 reporting.
  Task      268 on host ravg1110 reporting.
  Task      269 on host ravg1110 reporting.
  Task      270 on host ravg1110 reporting.
  Task      271 on host ravg1110 reporting.
  Task      272 on host ravg1110 reporting.
  Task      273 on host ravg1110 reporting.
  Task      274 on host ravg1110 reporting.
  Task      275 on host ravg1110 reporting.
  Task      276 on host ravg1110 reporting.
  Task      277 on host ravg1110 reporting.
  Task      278 on host ravg1110 reporting.
  Task      279 on host ravg1110 reporting.
  Task      280 on host ravg1110 reporting.
  Task      281 on host ravg1110 reporting.
  Task      282 on host ravg1110 reporting.
  Task      283 on host ravg1110 reporting.
  Task      284 on host ravg1110 reporting.
  Task      285 on host ravg1110 reporting.
  Task      286 on host ravg1110 reporting.
  Task      287 on host ravg1110 reporting.

  Performing system and environment tests:
  | Environment variable OMP_NUM_THREADS correctly set to 1.
  | Checking for ScaLAPACK...
  | Testing pdtran()...
  | All pdtran() tests passed.

  Obtaining array dimensions for all initial allocations:
  
  -----------------------------------------------------------------------
  Parsing control.in (first pass over file, find array dimensions only).
  The contents of control.in will be repeated verbatim below
  unless switched off by setting 'verbatim_writeout .false.' .
  in the first line of control.in .
  -----------------------------------------------------------------------
  
  ##### Physical settings  ################
  xc                 pbe
  spin               collinear
  default_initial_moment 1
  charge      0.0
  relativistic       atomic_zora scalar
  use_local_index .true.
  #elsi_restart read
  #relax_unit_cell fixed_angles
  #relax_unit_cell full
  #vdw_correction_hirshfeld
  #occupation_type gaussian       0.15
  # k-grid settings  (to be adjusted)
  k_grid  4 4 1
  empty_states 18
  use_dipole_correction
  many_body_dispersion_nl    beta=0.81
  
  # SO
  
  output dos_tetrahedron -10 2 4001
  #output atom_proj_dos_tetrahedron -20 2 8001
  output species_proj_dos_tetrahedron -10 2 4001
  # STM
  
  #output cube stm -2.0
  ## electronic density
  #output cube total_density
  #
  ## KS eigenstates
  #output cube eigenstate 17000
  #output cube eigenstate_density 17000
  ################################################################################
  #
  #  FHI-aims code project
  #  Volker Blum, Fritz Haber Institute Berlin, 2009
  #
  #  Suggested "tight" defaults for S atom (to be pasted into control.in file)
  #
  #  Revised Jan 04, 2011, following tests (SiC) done by Lydia Nemec:
  #     d and g functions of tier 2 now enabled by default.
  #
  ################################################################################
    species        S
  #     global species definitions
      nucleus             16
      mass                32.065
  #
      l_hartree           6
  #
      cut_pot             4.0          2.0  1.0
      basis_dep_cutoff    1e-4
  #
      radial_base         44 7.0
      radial_multiplier   2
      angular_grids       specified
        division   0.4665  110
        division   0.5810  194
        division   0.7139  302
        division   0.8274  434
  #      division   0.9105  590
  #      division   1.0975  770
  #      division   1.2028  974
  #      outer_grid  974
        outer_grid  434
  ################################################################################
  #
  #  Definition of "minimal" basis
  #
  ################################################################################
  #     valence basis states
      valence      3  s   2.
      valence      3  p   4.
  #     ion occupancy
      ion_occ      3  s   1.
      ion_occ      3  p   3.
  ################################################################################
  #
  #  Suggested additional basis functions. For production calculations,
  #  uncomment them one after another (the most important basis functions are
  #  listed first).
  #
  #  Constructed for dimers: 1.6 A, 1.9 A, 2.5 A, 3.25 A, 4.0 A
  #
  ################################################################################
  #  "First tier" - improvements: -652.81 meV to -45.53 meV
       ionic 3 d auto
       hydro 2 p 1.8
       hydro 4 f 7
       ionic 3 s auto
  #  "Second tier" - improvements: -30.20 meV to -1.74 meV
       hydro 4 d 6.2
       hydro 5 g 10.8
  #     hydro 4 p 4.9
  #     hydro 5 f 10
  #     hydro 1 s 0.8
  #  "Third tier" - improvements: -1.04 meV to -0.20 meV
  #     hydro 3 d 3.9
  #     hydro 3 d 2.7
  #     hydro 5 g 12
  #     hydro 4 p 10.4
  #     hydro 5 f 12.4
  #     hydro 2 s 1.9
  #  "Fourth tier" - improvements: -0.35 meV to -0.06 meV
  #     hydro 4 d 10.4
  #     hydro 4 p 7.2
  #     hydro 4 d 10
  #     hydro 5 g 19.2
  #     hydro 4 s 12
  
  ################################################################################
  #
  # For methods that use the localized form of the "resolution of identity" for
  # the two-electron Coulomb operator (RI_method LVL), particularly Hartree-Fock and
  # hybrid density functional calculations, the highest accuracy can be obtained by
  # uncommenting the line beginning with "for_aux"  below, thus adding an extra g radial
  # function to the construction of the product basis set for the expansion.
  # See Ref. New J. Phys. 17, 093020 (2015) for more information, particularly Figs. 1 and 6.
  #
  ################################################################################
  #
  # for_aux hydro 5 g 6.0
  ################################################################################
  #
  #  FHI-aims code project
  #  Volker Blum, Fritz Haber Institute Berlin, 2009
  #
  #  Suggested "tight" defaults for Mo atom (to be pasted into control.in file)
  #
  ################################################################################
    species        Mo
  #     global species definitions
      nucleus             42
      mass                95.94
  #
      l_hartree           6
  #
      cut_pot             4.0  2.0  1.0
      basis_dep_cutoff    1e-4
  #
      radial_base         59 7.0
      radial_multiplier   2
      angular_grids specified
        division   0.3117   50
        division   0.6750  110
        division   1.0351  194
        division   1.2073  302
        division   1.6402  434
  #      division   1.9185  590
  #      division   2.0237  770
  #      division   2.0980  974
  #      division   2.7972 1202
  #      outer_grid  974
        outer_grid  434
  ################################################################################
  #
  #  Definition of "minimal" basis
  #
  ################################################################################
  #     valence basis states
      valence      5  s   1.
      valence      4  p   6.
      valence      4  d   5.
  #     ion occupancy
      ion_occ     5  s   0.
      ion_occ     4  p   6.
      ion_occ     4  d   4.
  ################################################################################
  #
  #  Suggested additional basis functions. For production calculations,
  #  uncomment them one after another (the most important basis functions are
  #  listed first).
  #
  #  Constructed for dimers: 1.675 A, 1.9 A, 2.375 A, 3.00 A, 4.00 A
  #
  ################################################################################
  #  "First tier"  - max. impr. -711.23  meV, min. impr. -21.07 meV
       hydro 4 f 8.4
       hydro 3 d 2.8
       ionic 5 p auto
       hydro 5 g 12
       ionic 5 s auto
  #  "Second tier" - max. impr. -39.38  meV, min. impr. -2.68 meV
  #     hydro 4 f 12.4
  #     hydro 3 d 3.3
  #     hydro 6 h 17.2
  #     hydro 4 f 7.6
  #     hydro 3 p 3.0
  #     hydro 1 s 0.65
  #  "Third tier"  - max. impr. -5.50 meV, min. impr. -0.47 meV
  #     hydro 4 f 29.2
  #     hydro 5 g 11.2
  #     hydro 3 d 6.8
  #     hydro 6 h 14.8
  #     hydro 2 p 2.3
  #     hydro 4 s 3.8
  #  "Fourth tier"  - max. impr. -0.58 meV, min. impr. -0.19 meV
  #     hydro 5 f 6.8
  #     hydro 5 d 14.8
  #     hydro 6 s 7.8
  #     hydro 5 g 20.8
  #     hydro 5 d 10.4
  #     hydro 5 p 9.8
  #  Further functions - -0.17 meV and below
  #     hydro 5 d 3.2
  ################################################################################
  #
  #  FHI-aims code project
  #  Volker Blum, Fritz Haber Institute Berlin, 2009
  #
  #  Suggested "tight" defaults for Au atom (to be pasted into control.in file)
  #
  #  Feb. 16, 2013: Commented out the "h" basis function from tier 1 in the default.
  #                 Au is the only element to have this, and it usually does not
  #                 make a difference. With the advent of hybrid functionals, the
  #                 extra effort is critical.
  #
  ################################################################################
    species        Au
  #     global species definitions
      nucleus             79
      mass                196.966569
  #
      l_hartree           6
  #
      cut_pot             4.0  2.0  1.0
      basis_dep_cutoff    1e-4
  #
      radial_base         73 7.0
      radial_multiplier   2
      angular_grids specified
        division   0.3416   50
        division   0.7206  110
        division   1.1171  194
        division   1.2821  302
        division   1.5560  434
  #      division   2.1046  590
  #      division   2.2363  770
  #      division   2.2710  974
  #      division   2.8078 1202
  #      outer_grid 1202
        outer_grid  434
   ################################################################################
  #
  #  Definition of "minimal" basis
  #
  ################################################################################
  #     valence basis states
      valence      6  s   1.
      valence      5  p   6.
      valence      5  d  10.
      valence      4  f  14.
  #     ion occupancy
      ion_occ     6  s   0.
      ion_occ     5  p   6.
      ion_occ     5  d   9.
      ion_occ     4  f   14.
  ################################################################################
  #
  #  Suggested additional basis functions. For production calculations,
  #  uncomment them one after another (the most important basis functions are
  #  listed first).
  #
  #  Constructed for dimers: 2.10, 2.45, 3.00, 4.00 AA
  #
  ################################################################################
  #  "First tier" - max. impr. -161.60  meV, min. impr. -4.53 meV
       ionic 6 p auto
       hydro 4 f 7.4
       ionic 6 s auto
       hydro 5 g 10
  #     hydro 6 h 12.8
       hydro 3 d 2.5
  #  "Second tier" - max. impr. -2.46  meV, min. impr. -0.28 meV
  #     hydro 5 f 14.8
  #     hydro 4 d 3.9
  #     hydro 3 p 3.3
  #     hydro 1 s 0.45
  #     hydro 5 g 16.4
  #     hydro 6 h 13.6
  #  "Third tier" - max. impr. -0.49  meV, min. impr. -0.09 meV
  #     hydro 4 f 5.2
  #     hydro 4 d 5
  #     hydro 5 g 8
  #     hydro 5 p 8.2
  #     hydro 6 d 12.4
  #     hydro 6 s 14.8
  #  Further basis functions: -0.08 meV and below
  #     hydro 5 f 18.8
  #     hydro 5 g 20
  #    hydro 5 g 15.2
  
  -----------------------------------------------------------------------
  Completed first pass over input file control.in .
  -----------------------------------------------------------------------
  
  
  -----------------------------------------------------------------------
  Parsing geometry.in (first pass over file, find array dimensions only).
  The contents of geometry.in will be repeated verbatim below
  unless switched off by setting 'verbatim_writeout .false.' .
  in the first line of geometry.in .
  -----------------------------------------------------------------------
  
  lattice_vector 25.2294303199999987 -0.0014912800000000 0.0000000000000000
  lattice_vector -12.6158277600000002 21.8484267199999991 0.0000000000000000
  lattice_vector 0.0000000000000000 0.0000000000000000 103.1379633399999989
  atom 11.8251833300000015 21.3918398900000000 51.5689816699999923 Mo
  atom 0.7884078700000000 0.4551044799999999 53.1379633399999989 S
  atom 0.7884078700000000 0.4551044799999999 49.9999999999999929 S
  atom 22.8640326200000032 2.2744665099999994 51.5689816699999923 Mo
  atom -0.7885705999999998 3.1861578199999996 53.1379633399999989 S
  atom -0.7885705999999998 3.1861578199999996 49.9999999999999929 S
  atom 21.2870541500000030 5.0055198499999998 51.5689816699999923 Mo
  atom -2.3655490700000001 5.9172111599999999 53.1379633399999989 S
  atom -2.3655490700000001 5.9172111599999999 49.9999999999999929 S
  atom 19.7100756800000028 7.7365731899999997 51.5689816699999923 Mo
  atom -3.9425275399999999 8.6482644999999998 53.1379633399999989 S
  atom -3.9425275399999999 8.6482644999999998 49.9999999999999929 S
  atom 18.1330972100000025 10.4676265300000004 51.5689816699999923 Mo
  atom -5.5195060099999997 11.3793178399999988 53.1379633399999989 S
  atom -5.5195060099999997 11.3793178399999988 49.9999999999999929 S
  atom 16.5561187400000023 13.1986798699999994 51.5689816699999923 Mo
  atom -7.0964844800000009 14.1103711799999960 53.1379633399999989 S
  atom -7.0964844800000009 14.1103711799999960 49.9999999999999929 S
  atom 14.9791402700000003 15.9297332100000020 51.5689816699999923 Mo
  atom -8.6734629499999993 16.8414245200000003 53.1379633399999989 S
  atom -8.6734629499999993 16.8414245200000003 49.9999999999999929 S
  atom 13.4021618000000018 18.6607865500000010 51.5689816699999923 Mo
  atom -10.2504414199999996 19.5724778600000029 53.1379633399999989 S
  atom -10.2504414199999996 19.5724778600000029 49.9999999999999929 S
  atom -10.2505682000000000 21.3931447599999984 51.5689816699999923 Mo
  atom 3.9420866600000006 0.4549180700000000 53.1379633399999989 S
  atom 3.9420866600000006 0.4549180700000000 49.9999999999999929 S
  atom 0.7882810900000004 2.2757713800000001 51.5689816699999923 Mo
  atom 2.3651081900000004 3.1859714099999996 53.1379633399999989 S
  atom 2.3651081900000004 3.1859714099999996 49.9999999999999929 S
  atom -0.7886973800000002 5.0068247199999991 51.5689816699999923 Mo
  atom 0.7881297200000005 5.9170247499999995 53.1379633399999989 S
  atom 0.7881297200000005 5.9170247499999995 49.9999999999999929 S
  atom -2.3656758500000001 7.7378780599999990 51.5689816699999923 Mo
  atom -0.7888487499999995 8.6480780900000003 53.1379633399999989 S
  atom -0.7888487499999995 8.6480780900000003 49.9999999999999929 S
  atom -3.9426543200000004 10.4689314000000007 51.5689816699999923 Mo
  atom -2.3658272199999995 11.3791314299999993 53.1379633399999989 S
  atom -2.3658272199999995 11.3791314299999993 49.9999999999999929 S
  atom -5.5196327900000002 13.1999847399999997 51.5689816699999923 Mo
  atom -3.9428056900000010 14.1101847699999965 53.1379633399999989 S
  atom -3.9428056900000010 14.1101847699999965 49.9999999999999929 S
  atom -7.0966112599999995 15.9310380800000022 51.5689816699999923 Mo
  atom -5.5197841600000013 16.8412381099999955 53.1379633399999989 S
  atom -5.5197841600000013 16.8412381099999955 49.9999999999999929 S
  atom -8.6735897299999998 18.6620914199999994 51.5689816699999923 Mo
  atom -7.0967626299999997 19.5722914499999980 53.1379633399999989 S
  atom -7.0967626299999997 19.5722914499999980 49.9999999999999929 S
  atom -7.0968894100000011 21.3929583500000007 51.5689816699999923 Mo
  atom 7.0957654500000000 0.4547316600000000 53.1379633399999989 S
  atom 7.0957654500000000 0.4547316600000000 49.9999999999999929 S
  atom 3.9419598799999993 2.2755849700000002 51.5689816699999923 Mo
  atom 5.5187869799999998 3.1857850000000005 53.1379633399999989 S
  atom 5.5187869799999998 3.1857850000000005 49.9999999999999929 S
  atom 2.3649814099999995 5.0066383099999996 51.5689816699999923 Mo
  atom 3.9418085100000004 5.9168383400000000 53.1379633399999989 S
  atom 3.9418085100000004 5.9168383400000000 49.9999999999999929 S
  atom 0.7880029400000000 7.7376916499999986 51.5689816699999923 Mo
  atom 2.3648300400000002 8.6478916799999990 53.1379633399999989 S
  atom 2.3648300400000002 8.6478916799999990 49.9999999999999929 S
  atom -0.7889755300000000 10.4687449899999976 51.5689816699999923 Mo
  atom 0.7878515700000003 11.3789450199999997 53.1379633399999989 S
  atom 0.7878515700000003 11.3789450199999997 49.9999999999999929 S
  atom -2.3659540000000008 13.1997983300000001 51.5689816699999923 Mo
  atom -0.7891269000000010 14.1099983599999970 53.1379633399999989 S
  atom -0.7891269000000010 14.1099983599999970 49.9999999999999929 S
  atom -3.9429324700000006 15.9308516699999991 51.5689816699999923 Mo
  atom -2.3661053700000010 16.8410516999999977 53.1379633399999989 S
  atom -2.3661053700000010 16.8410516999999977 49.9999999999999929 S
  atom -5.5199109399999990 18.6619050099999981 51.5689816699999923 Mo
  atom -3.9430838399999995 19.5721050399999967 53.1379633399999989 S
  atom -3.9430838399999995 19.5721050399999967 49.9999999999999929 S
  atom -3.9432106200000017 21.3927719399999994 51.5689816699999923 Mo
  atom 10.2494442400000008 0.4545452500000000 53.1379633399999989 S
  atom 10.2494442400000008 0.4545452500000000 49.9999999999999929 S
  atom 7.0956386699999978 2.2753985600000002 51.5689816699999923 Mo
  atom 8.6724657700000005 3.1855985900000006 53.1379633399999989 S
  atom 8.6724657700000005 3.1855985900000006 49.9999999999999929 S
  atom 5.5186601999999993 5.0064518999999983 51.5689816699999923 Mo
  atom 7.0954873000000012 5.9166519299999996 53.1379633399999989 S
  atom 7.0954873000000012 5.9166519299999996 49.9999999999999929 S
  atom 3.9416817299999982 7.7375052400000000 51.5689816699999923 Mo
  atom 5.5185088300000009 8.6477052699999994 53.1379633399999989 S
  atom 5.5185088300000009 8.6477052699999994 49.9999999999999929 S
  atom 2.3647032599999975 10.4685585800000016 51.5689816699999923 Mo
  atom 3.9415303600000011 11.3787586100000002 53.1379633399999989 S
  atom 3.9415303600000011 11.3787586100000002 49.9999999999999929 S
  atom 0.7877247899999983 13.1996119199999988 51.5689816699999923 Mo
  atom 2.3645518900000009 14.1098119499999992 53.1379633399999989 S
  atom 2.3645518900000009 14.1098119499999992 49.9999999999999929 S
  atom -0.7892536800000014 15.9306652600000014 51.5689816699999923 Mo
  atom 0.7875734199999995 16.8408652900000000 53.1379633399999989 S
  atom 0.7875734199999995 16.8408652900000000 49.9999999999999929 S
  atom -2.3662321500000019 18.6617186000000004 51.5689816699999923 Mo
  atom -0.7894050500000005 19.5719186300000025 53.1379633399999989 S
  atom -0.7894050500000005 19.5719186300000025 49.9999999999999929 S
  atom -0.7895318299999993 21.3925855299999981 51.5689816699999923 Mo
  atom 13.4031230300000015 0.4543588400000000 53.1379633399999989 S
  atom 13.4031230300000015 0.4543588400000000 49.9999999999999929 S
  atom 10.2493174600000003 2.2752121500000002 51.5689816699999923 Mo
  atom 11.8261445600000012 3.1854121800000001 53.1379633399999989 S
  atom 11.8261445600000012 3.1854121800000001 49.9999999999999929 S
  atom 8.6723389900000001 5.0062654899999997 51.5689816699999923 Mo
  atom 10.2491660900000010 5.9164655200000000 53.1379633399999989 S
  atom 10.2491660900000010 5.9164655200000000 49.9999999999999929 S
  atom 7.0953605200000016 7.7373188299999986 51.5689816699999923 Mo
  atom 8.6721876199999972 8.6475188599999964 53.1379633399999989 S
  atom 8.6721876199999972 8.6475188599999964 49.9999999999999929 S
  atom 5.5183820500000005 10.4683721700000003 51.5689816699999923 Mo
  atom 7.0952091500000014 11.3785721999999989 49.9999999999999929 S
  atom 3.9414035800000007 13.1994255099999993 51.5689816699999923 Mo
  atom 5.5182306799999976 14.1096255399999961 53.1379633399999989 S
  atom 5.5182306799999976 14.1096255399999961 49.9999999999999929 S
  atom 2.3644251100000009 15.9304788500000001 51.5689816699999923 Mo
  atom 3.9412522099999978 16.8406788799999951 53.1379633399999989 S
  atom 3.9412522099999978 16.8406788799999951 49.9999999999999929 S
  atom 0.7874466400000008 18.6615321899999991 51.5689816699999923 Mo
  atom 2.3642737399999993 19.5717322199999977 53.1379633399999989 S
  atom 2.3642737399999993 19.5717322199999977 49.9999999999999929 S
  atom 2.3641469600000016 21.3923991200000003 51.5689816699999923 Mo
  atom 16.5568018200000004 0.4541724300000000 53.1379633399999989 S
  atom 16.5568018200000004 0.4541724300000000 49.9999999999999929 S
  atom 13.4029962500000011 2.2750257400000002 51.5689816699999923 Mo
  atom 14.9798233500000002 3.1852257700000002 53.1379633399999989 S
  atom 14.9798233500000002 3.1852257700000002 49.9999999999999929 S
  atom 11.8260177799999990 5.0060790799999983 51.5689816699999923 Mo
  atom 13.4028448800000000 5.9162791099999996 53.1379633399999989 S
  atom 13.4028448800000000 5.9162791099999996 49.9999999999999929 S
  atom 10.2490393099999988 7.7371324199999982 51.5689816699999923 Mo
  atom 11.8258664100000015 8.6473324500000004 53.1379633399999989 S
  atom 11.8258664100000015 8.6473324500000004 49.9999999999999929 S
  atom 8.6720608400000003 10.4681857600000008 51.5689816699999923 Mo
  atom 10.2488879400000013 11.3783857899999994 53.1379633399999989 S
  atom 10.2488879400000013 11.3783857899999994 49.9999999999999929 S
  atom 7.0950823700000019 13.1992390999999998 51.5689816699999923 Mo
  atom 8.6719094699999992 14.1094391299999966 53.1379633399999989 S
  atom 8.6719094699999992 14.1094391299999966 49.9999999999999929 S
  atom 5.5181039000000016 15.9302924399999988 51.5689816699999923 Mo
  atom 7.0949310000000017 16.8404924699999974 53.1379633399999989 S
  atom 7.0949310000000017 16.8404924699999974 49.9999999999999929 S
  atom 3.9411254300000014 18.6613457799999978 51.5689816699999923 Mo
  atom 5.5179525299999996 19.5715458099999999 53.1379633399999989 S
  atom 5.5179525299999996 19.5715458099999999 49.9999999999999929 S
  atom 5.5178257499999965 21.3922127099999990 51.5689816699999923 Mo
  atom 19.7104806099999976 0.4539860200000000 53.1379633399999989 S
  atom 19.7104806099999976 0.4539860200000000 49.9999999999999929 S
  atom 16.5566750399999982 2.2748393299999998 51.5689816699999923 Mo
  atom 18.1335021399999974 3.1850393600000002 53.1379633399999989 S
  atom 18.1335021399999974 3.1850393600000002 49.9999999999999929 S
  atom 14.9796965699999962 5.0058926699999997 51.5689816699999923 Mo
  atom 16.5565236699999971 5.9160926999999992 53.1379633399999989 S
  atom 16.5565236699999971 5.9160926999999992 49.9999999999999929 S
  atom 13.4027180999999977 7.7369460099999987 51.5689816699999923 Mo
  atom 14.9795451999999987 8.6471460399999991 53.1379633399999989 S
  atom 14.9795451999999987 8.6471460399999991 49.9999999999999929 S
  atom 11.8257396299999975 10.4679993499999977 51.5689816699999923 Mo
  atom 13.4025667299999984 11.3781993799999999 53.1379633399999989 S
  atom 13.4025667299999984 11.3781993799999999 49.9999999999999929 S
  atom 10.2487611599999973 13.1990526900000003 51.5689816699999923 Mo
  atom 11.8255882599999964 14.1092527199999971 53.1379633399999989 S
  atom 11.8255882599999964 14.1092527199999971 49.9999999999999929 S
  atom 8.6717826899999988 15.9301060300000010 51.5689816699999923 Mo
  atom 10.2486097900000033 16.8403060600000032 53.1379633399999989 S
  atom 10.2486097900000033 16.8403060600000032 49.9999999999999929 S
  atom 7.0948042199999968 18.6611593700000000 51.5689816699999923 Mo
  atom 8.6716313199999959 19.5713593999999951 53.1379633399999989 S
  atom 8.6716313199999959 19.5713593999999951 49.9999999999999929 S
  atom 8.6715045399999973 21.3920262999999977 51.5689816699999923 Mo
  atom 22.8641594000000019 0.4537996100000000 53.1379633399999989 S
  atom 22.8641594000000019 0.4537996100000000 49.9999999999999929 S
  atom 19.7103538299999990 2.2746529200000003 51.5689816699999923 Mo
  atom 21.2871809300000017 3.1848529500000002 53.1379633399999989 S
  atom 21.2871809300000017 3.1848529500000002 49.9999999999999929 S
  atom 18.1333753599999987 5.0057062599999984 51.5689816699999923 Mo
  atom 19.7102024600000014 5.9159062899999997 53.1379633399999989 S
  atom 19.7102024600000014 5.9159062899999997 49.9999999999999929 S
  atom 16.5563968899999985 7.7367596000000001 51.5689816699999923 Mo
  atom 18.1332239900000012 8.6469596299999996 53.1379633399999989 S
  atom 18.1332239900000012 8.6469596299999996 49.9999999999999929 S
  atom 14.9794184199999965 10.4678129400000017 51.5689816699999923 Mo
  atom 16.5562455200000009 11.3780129699999986 53.1379633399999989 S
  atom 16.5562455200000009 11.3780129699999986 49.9999999999999929 S
  atom 13.4024399499999980 13.1988662799999990 51.5689816699999923 Mo
  atom 14.9792670500000025 14.1090663099999993 53.1379633399999989 S
  atom 14.9792670500000025 14.1090663099999993 49.9999999999999929 S
  atom 11.8254614799999977 15.9299196199999997 51.5689816699999923 Mo
  atom 13.4022885799999969 16.8401196499999983 53.1379633399999989 S
  atom 13.4022885799999969 16.8401196499999983 49.9999999999999929 S
  atom 10.2484830099999957 18.6609729599999952 51.5689816699999923 Mo
  atom 11.8253101099999967 19.5711729899999973 53.1379633399999989 S
  atom 11.8253101099999967 19.5711729899999973 49.9999999999999929 S
  
  -----------------------------------------------------------------------
  Completed first pass over input file geometry.in .
  -----------------------------------------------------------------------
  

  Basic array size parameters:
  | Number of species                 :        3
  | Number of atoms                   :      191
  | Number of lattice vectors         :        3
  | Max. basis fn. angular momentum   :        4
  | Max. atomic/ionic basis occupied n:        6
  | Max. number of basis fn. types    :        3
  | Max. radial fns per species/type  :       14
  | Max. logarithmic grid size        :     1488
  | Max. radial integration grid size :      147
  | Max. angular integration grid size:      434
  | Max. angular grid division number :        8
  | Radial grid for Hartree potential :     1488
  | Number of spin channels           :        2

------------------------------------------------------------
          Reading file control.in.
------------------------------------------------------------
  XC: Using PBE gradient-corrected functionals.
  Spin treatment: Spin density functional theory - collinear spins.
  Initial spin moment per atom:   1.0000
  Charge =   0.000000E+00: Neutral system requested explicitly.
  Scalar relativistic treatment of kinetic energy: on-site free-atom approximation to ZORA.
  Storing only matrices local to each thread.
  Found k-point grid:         4         4         1
  Number of empty states per atom:       18
  Using dipole correction.
  Using libMBD for calculating MBD and TS energies
  Calculating density of states with
  | energy interval :-10.000000  2.000000
  | points & tetrahedron method :  4001
  Calculating angular-momentum projected DOS with 
  | energy interval :-10.000000  2.000000
  | points & tetrahedron :  4001
 
  Reading configuration options for species S                   .
  | Found nuclear charge :  16.0000
  | Found atomic mass :    32.0650000000000      amu
  | Found l_max for Hartree potential  :   6
  | Found cutoff potl. onset [A], width [A], scale factor :    4.00000    2.00000    1.00000
  | Threshold for basis-dependent cutoff potential is   0.100000E-03
  | Found data for basic radial integration grid :    44 points, outermost radius =    7.000 A
  | Found multiplier for basic radial grid :   2
  | Found angular grid specification: user-specified.
  | Specified grid contains     5 separate shells.
  | Check grid settings after all constraints further below.
  | Found free-atom valence shell :  3 s   2.000
  | Found free-atom valence shell :  3 p   4.000
  | Found free-ion valence shell :  3 s   1.000
  | Found free-ion valence shell :  3 p   3.000
  | Found ionic basis function :  3 d , default cutoff radius.
  | Found hydrogenic basis function :  2 p   1.800
  | Found hydrogenic basis function :  4 f   7.000
  | Found ionic basis function :  3 s , default cutoff radius.
  | Found hydrogenic basis function :  4 d   6.200
  | Found hydrogenic basis function :  5 g  10.800
  Species S                   : Missing cutoff potential type.
  Defaulting to exp(1/x)/(1-x)^2 type cutoff potential.
  Species S : No 'logarithmic' tag. Using default grid for free atom:
  | Default logarithmic grid data [bohr] : 0.1000E-03 0.1000E+03 0.1012E+01
  | Will include ionic basis functions of  2.0-fold positive S                    ion.
  Species S : On-site basis accuracy parameter (for Gram-Schmidt orthonormalisation) not specified.
  Using default value basis_acc =  0.1000000E-03.
  Species S                   : Using default innermost maximum threshold i_radial=  2 for radial functions.
  Species S                   : Default cutoff onset for free atom density etc. : 0.40000000E+01 AA.
  Species S                   : Basic radial grid will be enhanced according to radial_multiplier =   2, to contain    89 grid points.
 
  Reading configuration options for species Mo                  .
  | Found nuclear charge :  42.0000
  | Found atomic mass :    95.9400000000000      amu
  | Found l_max for Hartree potential  :   6
  | Found cutoff potl. onset [A], width [A], scale factor :    4.00000    2.00000    1.00000
  | Threshold for basis-dependent cutoff potential is   0.100000E-03
  | Found data for basic radial integration grid :    59 points, outermost radius =    7.000 A
  | Found multiplier for basic radial grid :   2
  | Found angular grid specification: user-specified.
  | Specified grid contains     6 separate shells.
  | Check grid settings after all constraints further below.
  | Found free-atom valence shell :  5 s   1.000
  | Found free-atom valence shell :  4 p   6.000
  | Found free-atom valence shell :  4 d   5.000
  | Found free-ion valence shell :  5 s   0.000
  | Found free-ion valence shell :  4 p   6.000
  | Found free-ion valence shell :  4 d   4.000
  | Found hydrogenic basis function :  4 f   8.400
  | Found hydrogenic basis function :  3 d   2.800
  | Found ionic basis function :  5 p , default cutoff radius.
  | Found hydrogenic basis function :  5 g  12.000
  | Found ionic basis function :  5 s , default cutoff radius.
  Species Mo                  : Missing cutoff potential type.
  Defaulting to exp(1/x)/(1-x)^2 type cutoff potential.
  Species Mo: No 'logarithmic' tag. Using default grid for free atom:
  | Default logarithmic grid data [bohr] : 0.1000E-03 0.1000E+03 0.1012E+01
  | Will include ionic basis functions of  2.0-fold positive Mo                   ion.
  Species Mo: On-site basis accuracy parameter (for Gram-Schmidt orthonormalisation) not specified.
  Using default value basis_acc =  0.1000000E-03.
  Species Mo                  : Using default innermost maximum threshold i_radial=  2 for radial functions.
  Species Mo                  : Default cutoff onset for free atom density etc. : 0.40000000E+01 AA.
  Species Mo                  : Basic radial grid will be enhanced according to radial_multiplier =   2, to contain   119 grid points.
 
  Reading configuration options for species Au                  .
  | Found nuclear charge :  79.0000
  | Found atomic mass :    196.966569000000      amu
  | Found l_max for Hartree potential  :   6
  | Found cutoff potl. onset [A], width [A], scale factor :    4.00000    2.00000    1.00000
  | Threshold for basis-dependent cutoff potential is   0.100000E-03
  | Found data for basic radial integration grid :    73 points, outermost radius =    7.000 A
  | Found multiplier for basic radial grid :   2
  | Found angular grid specification: user-specified.
  | Specified grid contains     6 separate shells.
  | Check grid settings after all constraints further below.
  | Found free-atom valence shell :  6 s   1.000
  | Found free-atom valence shell :  5 p   6.000
  | Found free-atom valence shell :  5 d  10.000
  | Found free-atom valence shell :  4 f  14.000
  | Found free-ion valence shell :  6 s   0.000
  | Found free-ion valence shell :  5 p   6.000
  | Found free-ion valence shell :  5 d   9.000
  | Found free-ion valence shell :  4 f  14.000
  | Found ionic basis function :  6 p , default cutoff radius.
  | Found hydrogenic basis function :  4 f   7.400
  | Found ionic basis function :  6 s , default cutoff radius.
  | Found hydrogenic basis function :  5 g  10.000
  | Found hydrogenic basis function :  3 d   2.500
  Species Au                  : Missing cutoff potential type.
  Defaulting to exp(1/x)/(1-x)^2 type cutoff potential.
  Species Au: No 'logarithmic' tag. Using default grid for free atom:
  | Default logarithmic grid data [bohr] : 0.1000E-03 0.1000E+03 0.1012E+01
  | Will include ionic basis functions of  2.0-fold positive Au                   ion.
  Species Au: On-site basis accuracy parameter (for Gram-Schmidt orthonormalisation) not specified.
  Using default value basis_acc =  0.1000000E-03.
  Species Au                  : Using default innermost maximum threshold i_radial=  2 for radial functions.
  Species Au                  : Default cutoff onset for free atom density etc. : 0.40000000E+01 AA.
  Species Au                  : Basic radial grid will be enhanced according to radial_multiplier =   2, to contain   147 grid points.
 
  Finished reading input file 'control.in'.
 
------------------------------------------------------------


------------------------------------------------------------
          Reading geometry description geometry.in.
------------------------------------------------------------
  | The smallest distance between any two atoms is         2.40344159 AA.
  | The first atom of this pair is atom number                     24 .
  | The second atom of this pair is atom number                    25 .
  | Wigner-Seitz cell of the first atom image           0     0     0 .
  | (The Wigner-Seitz cell of the second atom is 0 0 0  by definition.)

  Symmetry information by spglib:
  | Precision set to  0.1E-04
  | Number of Operations  : 1
  | Space group           : 1
  | International         : P1
  | Schoenflies           : C1^1
  Input structure read successfully.
  The structure contains      191 atoms,  and a total of       4720.000 electrons.

  Input geometry:
  | Unit cell:
  |       25.22943032       -0.00149128        0.00000000
  |      -12.61582776       21.84842672        0.00000000
  |        0.00000000        0.00000000      103.13796334
  | Atomic structure:
  |       Atom                x [A]            y [A]            z [A]
  |    1: Species Mo           11.82518333       21.39183989       51.56898167
  |    2: Species S             0.78840787        0.45510448       53.13796334
  |    3: Species S             0.78840787        0.45510448       50.00000000
  |    4: Species Mo           22.86403262        2.27446651       51.56898167
  |    5: Species S            -0.78857060        3.18615782       53.13796334
  |    6: Species S            -0.78857060        3.18615782       50.00000000
  |    7: Species Mo           21.28705415        5.00551985       51.56898167
  |    8: Species S            -2.36554907        5.91721116       53.13796334
  |    9: Species S            -2.36554907        5.91721116       50.00000000
  |   10: Species Mo           19.71007568        7.73657319       51.56898167
  |   11: Species S            -3.94252754        8.64826450       53.13796334
  |   12: Species S            -3.94252754        8.64826450       50.00000000
  |   13: Species Mo           18.13309721       10.46762653       51.56898167
  |   14: Species S            -5.51950601       11.37931784       53.13796334
  |   15: Species S            -5.51950601       11.37931784       50.00000000
  |   16: Species Mo           16.55611874       13.19867987       51.56898167
  |   17: Species S            -7.09648448       14.11037118       53.13796334
  |   18: Species S            -7.09648448       14.11037118       50.00000000
  |   19: Species Mo           14.97914027       15.92973321       51.56898167
  |   20: Species S            -8.67346295       16.84142452       53.13796334
  |   21: Species S            -8.67346295       16.84142452       50.00000000
  |   22: Species Mo           13.40216180       18.66078655       51.56898167
  |   23: Species S           -10.25044142       19.57247786       53.13796334
  |   24: Species S           -10.25044142       19.57247786       50.00000000
  |   25: Species Mo          -10.25056820       21.39314476       51.56898167
  |   26: Species S             3.94208666        0.45491807       53.13796334
  |   27: Species S             3.94208666        0.45491807       50.00000000
  |   28: Species Mo            0.78828109        2.27577138       51.56898167
  |   29: Species S             2.36510819        3.18597141       53.13796334
  |   30: Species S             2.36510819        3.18597141       50.00000000
  |   31: Species Mo           -0.78869738        5.00682472       51.56898167
  |   32: Species S             0.78812972        5.91702475       53.13796334
  |   33: Species S             0.78812972        5.91702475       50.00000000
  |   34: Species Mo           -2.36567585        7.73787806       51.56898167
  |   35: Species S            -0.78884875        8.64807809       53.13796334
  |   36: Species S            -0.78884875        8.64807809       50.00000000
  |   37: Species Mo           -3.94265432       10.46893140       51.56898167
  |   38: Species S            -2.36582722       11.37913143       53.13796334
  |   39: Species S            -2.36582722       11.37913143       50.00000000
  |   40: Species Mo           -5.51963279       13.19998474       51.56898167
  |   41: Species S            -3.94280569       14.11018477       53.13796334
  |   42: Species S            -3.94280569       14.11018477       50.00000000
  |   43: Species Mo           -7.09661126       15.93103808       51.56898167
  |   44: Species S            -5.51978416       16.84123811       53.13796334
  |   45: Species S            -5.51978416       16.84123811       50.00000000
  |   46: Species Mo           -8.67358973       18.66209142       51.56898167
  |   47: Species S            -7.09676263       19.57229145       53.13796334
  |   48: Species S            -7.09676263       19.57229145       50.00000000
  |   49: Species Mo           -7.09688941       21.39295835       51.56898167
  |   50: Species S             7.09576545        0.45473166       53.13796334
  |   51: Species S             7.09576545        0.45473166       50.00000000
  |   52: Species Mo            3.94195988        2.27558497       51.56898167
  |   53: Species S             5.51878698        3.18578500       53.13796334
  |   54: Species S             5.51878698        3.18578500       50.00000000
  |   55: Species Mo            2.36498141        5.00663831       51.56898167
  |   56: Species S             3.94180851        5.91683834       53.13796334
  |   57: Species S             3.94180851        5.91683834       50.00000000
  |   58: Species Mo            0.78800294        7.73769165       51.56898167
  |   59: Species S             2.36483004        8.64789168       53.13796334
  |   60: Species S             2.36483004        8.64789168       50.00000000
  |   61: Species Mo           -0.78897553       10.46874499       51.56898167
  |   62: Species S             0.78785157       11.37894502       53.13796334
  |   63: Species S             0.78785157       11.37894502       50.00000000
  |   64: Species Mo           -2.36595400       13.19979833       51.56898167
  |   65: Species S            -0.78912690       14.10999836       53.13796334
  |   66: Species S            -0.78912690       14.10999836       50.00000000
  |   67: Species Mo           -3.94293247       15.93085167       51.56898167
  |   68: Species S            -2.36610537       16.84105170       53.13796334
  |   69: Species S            -2.36610537       16.84105170       50.00000000
  |   70: Species Mo           -5.51991094       18.66190501       51.56898167
  |   71: Species S            -3.94308384       19.57210504       53.13796334
  |   72: Species S            -3.94308384       19.57210504       50.00000000
  |   73: Species Mo           -3.94321062       21.39277194       51.56898167
  |   74: Species S            10.24944424        0.45454525       53.13796334
  |   75: Species S            10.24944424        0.45454525       50.00000000
  |   76: Species Mo            7.09563867        2.27539856       51.56898167
  |   77: Species S             8.67246577        3.18559859       53.13796334
  |   78: Species S             8.67246577        3.18559859       50.00000000
  |   79: Species Mo            5.51866020        5.00645190       51.56898167
  |   80: Species S             7.09548730        5.91665193       53.13796334
  |   81: Species S             7.09548730        5.91665193       50.00000000
  |   82: Species Mo            3.94168173        7.73750524       51.56898167
  |   83: Species S             5.51850883        8.64770527       53.13796334
  |   84: Species S             5.51850883        8.64770527       50.00000000
  |   85: Species Mo            2.36470326       10.46855858       51.56898167
  |   86: Species S             3.94153036       11.37875861       53.13796334
  |   87: Species S             3.94153036       11.37875861       50.00000000
  |   88: Species Mo            0.78772479       13.19961192       51.56898167
  |   89: Species S             2.36455189       14.10981195       53.13796334
  |   90: Species S             2.36455189       14.10981195       50.00000000
  |   91: Species Mo           -0.78925368       15.93066526       51.56898167
  |   92: Species S             0.78757342       16.84086529       53.13796334
  |   93: Species S             0.78757342       16.84086529       50.00000000
  |   94: Species Mo           -2.36623215       18.66171860       51.56898167
  |   95: Species S            -0.78940505       19.57191863       53.13796334
  |   96: Species S            -0.78940505       19.57191863       50.00000000
  |   97: Species Mo           -0.78953183       21.39258553       51.56898167
  |   98: Species S            13.40312303        0.45435884       53.13796334
  |   99: Species S            13.40312303        0.45435884       50.00000000
  |  100: Species Mo           10.24931746        2.27521215       51.56898167
  |  101: Species S            11.82614456        3.18541218       53.13796334
  |  102: Species S            11.82614456        3.18541218       50.00000000
  |  103: Species Mo            8.67233899        5.00626549       51.56898167
  |  104: Species S            10.24916609        5.91646552       53.13796334
  |  105: Species S            10.24916609        5.91646552       50.00000000
  |  106: Species Mo            7.09536052        7.73731883       51.56898167
  |  107: Species S             8.67218762        8.64751886       53.13796334
  |  108: Species S             8.67218762        8.64751886       50.00000000
  |  109: Species Mo            5.51838205       10.46837217       51.56898167
  |  110: Species S             7.09520915       11.37857220       50.00000000
  |  111: Species Mo            3.94140358       13.19942551       51.56898167
  |  112: Species S             5.51823068       14.10962554       53.13796334
  |  113: Species S             5.51823068       14.10962554       50.00000000
  |  114: Species Mo            2.36442511       15.93047885       51.56898167
  |  115: Species S             3.94125221       16.84067888       53.13796334
  |  116: Species S             3.94125221       16.84067888       50.00000000
  |  117: Species Mo            0.78744664       18.66153219       51.56898167
  |  118: Species S             2.36427374       19.57173222       53.13796334
  |  119: Species S             2.36427374       19.57173222       50.00000000
  |  120: Species Mo            2.36414696       21.39239912       51.56898167
  |  121: Species S            16.55680182        0.45417243       53.13796334
  |  122: Species S            16.55680182        0.45417243       50.00000000
  |  123: Species Mo           13.40299625        2.27502574       51.56898167
  |  124: Species S            14.97982335        3.18522577       53.13796334
  |  125: Species S            14.97982335        3.18522577       50.00000000
  |  126: Species Mo           11.82601778        5.00607908       51.56898167
  |  127: Species S            13.40284488        5.91627911       53.13796334
  |  128: Species S            13.40284488        5.91627911       50.00000000
  |  129: Species Mo           10.24903931        7.73713242       51.56898167
  |  130: Species S            11.82586641        8.64733245       53.13796334
  |  131: Species S            11.82586641        8.64733245       50.00000000
  |  132: Species Mo            8.67206084       10.46818576       51.56898167
  |  133: Species S            10.24888794       11.37838579       53.13796334
  |  134: Species S            10.24888794       11.37838579       50.00000000
  |  135: Species Mo            7.09508237       13.19923910       51.56898167
  |  136: Species S             8.67190947       14.10943913       53.13796334
  |  137: Species S             8.67190947       14.10943913       50.00000000
  |  138: Species Mo            5.51810390       15.93029244       51.56898167
  |  139: Species S             7.09493100       16.84049247       53.13796334
  |  140: Species S             7.09493100       16.84049247       50.00000000
  |  141: Species Mo            3.94112543       18.66134578       51.56898167
  |  142: Species S             5.51795253       19.57154581       53.13796334
  |  143: Species S             5.51795253       19.57154581       50.00000000
  |  144: Species Mo            5.51782575       21.39221271       51.56898167
  |  145: Species S            19.71048061        0.45398602       53.13796334
  |  146: Species S            19.71048061        0.45398602       50.00000000
  |  147: Species Mo           16.55667504        2.27483933       51.56898167
  |  148: Species S            18.13350214        3.18503936       53.13796334
  |  149: Species S            18.13350214        3.18503936       50.00000000
  |  150: Species Mo           14.97969657        5.00589267       51.56898167
  |  151: Species S            16.55652367        5.91609270       53.13796334
  |  152: Species S            16.55652367        5.91609270       50.00000000
  |  153: Species Mo           13.40271810        7.73694601       51.56898167
  |  154: Species S            14.97954520        8.64714604       53.13796334
  |  155: Species S            14.97954520        8.64714604       50.00000000
  |  156: Species Mo           11.82573963       10.46799935       51.56898167
  |  157: Species S            13.40256673       11.37819938       53.13796334
  |  158: Species S            13.40256673       11.37819938       50.00000000
  |  159: Species Mo           10.24876116       13.19905269       51.56898167
  |  160: Species S            11.82558826       14.10925272       53.13796334
  |  161: Species S            11.82558826       14.10925272       50.00000000
  |  162: Species Mo            8.67178269       15.93010603       51.56898167
  |  163: Species S            10.24860979       16.84030606       53.13796334
  |  164: Species S            10.24860979       16.84030606       50.00000000
  |  165: Species Mo            7.09480422       18.66115937       51.56898167
  |  166: Species S             8.67163132       19.57135940       53.13796334
  |  167: Species S             8.67163132       19.57135940       50.00000000
  |  168: Species Mo            8.67150454       21.39202630       51.56898167
  |  169: Species S            22.86415940        0.45379961       53.13796334
  |  170: Species S            22.86415940        0.45379961       50.00000000
  |  171: Species Mo           19.71035383        2.27465292       51.56898167
  |  172: Species S            21.28718093        3.18485295       53.13796334
  |  173: Species S            21.28718093        3.18485295       50.00000000
  |  174: Species Mo           18.13337536        5.00570626       51.56898167
  |  175: Species S            19.71020246        5.91590629       53.13796334
  |  176: Species S            19.71020246        5.91590629       50.00000000
  |  177: Species Mo           16.55639689        7.73675960       51.56898167
  |  178: Species S            18.13322399        8.64695963       53.13796334
  |  179: Species S            18.13322399        8.64695963       50.00000000
  |  180: Species Mo           14.97941842       10.46781294       51.56898167
  |  181: Species S            16.55624552       11.37801297       53.13796334
  |  182: Species S            16.55624552       11.37801297       50.00000000
  |  183: Species Mo           13.40243995       13.19886628       51.56898167
  |  184: Species S            14.97926705       14.10906631       53.13796334
  |  185: Species S            14.97926705       14.10906631       50.00000000
  |  186: Species Mo           11.82546148       15.92991962       51.56898167
  |  187: Species S            13.40228858       16.84011965       53.13796334
  |  188: Species S            13.40228858       16.84011965       50.00000000
  |  189: Species Mo           10.24848301       18.66097296       51.56898167
  |  190: Species S            11.82531011       19.57117299       53.13796334
  |  191: Species S            11.82531011       19.57117299       50.00000000

  Lattice parameters for 3D lattice (in Angstroms) :    25.229430   25.229206  103.137963
  Angle(s) between unit vectors (in degrees)       :    90.000000   90.000000  120.006598


  Quantities derived from the lattice vectors:
  | Reciprocal lattice vector 1:  0.249050  0.143808  0.000000
  | Reciprocal lattice vector 2:  0.000017  0.287590  0.000000
  | Reciprocal lattice vector 3:  0.000000  0.000000  0.060920
  | Unit cell volume                               :   0.568501E+05  A^3

  Fractional coordinates:
                         L1                L2                L3
       atom_frac         0.95833284        0.97916748        0.50000000  Mo
       atom_frac         0.04166691        0.02083292        0.51521246  S
       atom_frac         0.04166691        0.02083292        0.48478754  S
       atom_frac         0.95833284        0.10416748        0.50000000  Mo
       atom_frac         0.04166691        0.14583292        0.51521246  S
       atom_frac         0.04166691        0.14583292        0.48478754  S
       atom_frac         0.95833284        0.22916748        0.50000000  Mo
       atom_frac         0.04166691        0.27083292        0.51521246  S
       atom_frac         0.04166691        0.27083292        0.48478754  S
       atom_frac         0.95833284        0.35416748        0.50000000  Mo
       atom_frac         0.04166691        0.39583292        0.51521246  S
       atom_frac         0.04166691        0.39583292        0.48478754  S
       atom_frac         0.95833284        0.47916748        0.50000000  Mo
       atom_frac         0.04166691        0.52083292        0.51521246  S
       atom_frac         0.04166691        0.52083292        0.48478754  S
       atom_frac         0.95833284        0.60416748        0.50000000  Mo
       atom_frac         0.04166691        0.64583292        0.51521246  S
       atom_frac         0.04166691        0.64583292        0.48478754  S
       atom_frac         0.95833284        0.72916748        0.50000000  Mo
       atom_frac         0.04166691        0.77083292        0.51521246  S
       atom_frac         0.04166691        0.77083292        0.48478754  S
       atom_frac         0.95833284        0.85416748        0.50000000  Mo
       atom_frac         0.04166691        0.89583292        0.51521246  S
       atom_frac         0.04166691        0.89583292        0.48478754  S
       atom_frac         0.08333284        0.97916748        0.50000000  Mo
       atom_frac         0.16666691        0.02083292        0.51521246  S
       atom_frac         0.16666691        0.02083292        0.48478754  S
       atom_frac         0.08333284        0.10416748        0.50000000  Mo
       atom_frac         0.16666691        0.14583292        0.51521246  S
       atom_frac         0.16666691        0.14583292        0.48478754  S
       atom_frac         0.08333284        0.22916748        0.50000000  Mo
       atom_frac         0.16666691        0.27083292        0.51521246  S
       atom_frac         0.16666691        0.27083292        0.48478754  S
       atom_frac         0.08333284        0.35416748        0.50000000  Mo
       atom_frac         0.16666691        0.39583292        0.51521246  S
       atom_frac         0.16666691        0.39583292        0.48478754  S
       atom_frac         0.08333284        0.47916748        0.50000000  Mo
       atom_frac         0.16666691        0.52083292        0.51521246  S
       atom_frac         0.16666691        0.52083292        0.48478754  S
       atom_frac         0.08333284        0.60416748        0.50000000  Mo
       atom_frac         0.16666691        0.64583292        0.51521246  S
       atom_frac         0.16666691        0.64583292        0.48478754  S
       atom_frac         0.08333284        0.72916748        0.50000000  Mo
       atom_frac         0.16666691        0.77083292        0.51521246  S
       atom_frac         0.16666691        0.77083292        0.48478754  S
       atom_frac         0.08333284        0.85416748        0.50000000  Mo
       atom_frac         0.16666691        0.89583292        0.51521246  S
       atom_frac         0.16666691        0.89583292        0.48478754  S
       atom_frac         0.20833284        0.97916748        0.50000000  Mo
       atom_frac         0.29166691        0.02083292        0.51521246  S
       atom_frac         0.29166691        0.02083292        0.48478754  S
       atom_frac         0.20833284        0.10416748        0.50000000  Mo
       atom_frac         0.29166691        0.14583292        0.51521246  S
       atom_frac         0.29166691        0.14583292        0.48478754  S
       atom_frac         0.20833284        0.22916748        0.50000000  Mo
       atom_frac         0.29166691        0.27083292        0.51521246  S
       atom_frac         0.29166691        0.27083292        0.48478754  S
       atom_frac         0.20833284        0.35416748        0.50000000  Mo
       atom_frac         0.29166691        0.39583292        0.51521246  S
       atom_frac         0.29166691        0.39583292        0.48478754  S
       atom_frac         0.20833284        0.47916748        0.50000000  Mo
       atom_frac         0.29166691        0.52083292        0.51521246  S
       atom_frac         0.29166691        0.52083292        0.48478754  S
       atom_frac         0.20833284        0.60416748        0.50000000  Mo
       atom_frac         0.29166691        0.64583292        0.51521246  S
       atom_frac         0.29166691        0.64583292        0.48478754  S
       atom_frac         0.20833284        0.72916748        0.50000000  Mo
       atom_frac         0.29166691        0.77083292        0.51521246  S
       atom_frac         0.29166691        0.77083292        0.48478754  S
       atom_frac         0.20833284        0.85416748        0.50000000  Mo
       atom_frac         0.29166691        0.89583292        0.51521246  S
       atom_frac         0.29166691        0.89583292        0.48478754  S
       atom_frac         0.33333284        0.97916748        0.50000000  Mo
       atom_frac         0.41666691        0.02083292        0.51521246  S
       atom_frac         0.41666691        0.02083292        0.48478754  S
       atom_frac         0.33333284        0.10416748        0.50000000  Mo
       atom_frac         0.41666691        0.14583292        0.51521246  S
       atom_frac         0.41666691        0.14583292        0.48478754  S
       atom_frac         0.33333284        0.22916748        0.50000000  Mo
       atom_frac         0.41666691        0.27083292        0.51521246  S
       atom_frac         0.41666691        0.27083292        0.48478754  S
       atom_frac         0.33333284        0.35416748        0.50000000  Mo
       atom_frac         0.41666691        0.39583292        0.51521246  S
       atom_frac         0.41666691        0.39583292        0.48478754  S
       atom_frac         0.33333284        0.47916748        0.50000000  Mo
       atom_frac         0.41666691        0.52083292        0.51521246  S
       atom_frac         0.41666691        0.52083292        0.48478754  S
       atom_frac         0.33333284        0.60416748        0.50000000  Mo
       atom_frac         0.41666691        0.64583292        0.51521246  S
       atom_frac         0.41666691        0.64583292        0.48478754  S
       atom_frac         0.33333284        0.72916748        0.50000000  Mo
       atom_frac         0.41666691        0.77083292        0.51521246  S
       atom_frac         0.41666691        0.77083292        0.48478754  S
       atom_frac         0.33333284        0.85416748        0.50000000  Mo
       atom_frac         0.41666691        0.89583292        0.51521246  S
       atom_frac         0.41666691        0.89583292        0.48478754  S
       atom_frac         0.45833284        0.97916748        0.50000000  Mo
       atom_frac         0.54166691        0.02083292        0.51521246  S
       atom_frac         0.54166691        0.02083292        0.48478754  S
       atom_frac         0.45833284        0.10416748        0.50000000  Mo
       atom_frac         0.54166691        0.14583292        0.51521246  S
       atom_frac         0.54166691        0.14583292        0.48478754  S
       atom_frac         0.45833284        0.22916748        0.50000000  Mo
       atom_frac         0.54166691        0.27083292        0.51521246  S
       atom_frac         0.54166691        0.27083292        0.48478754  S
       atom_frac         0.45833284        0.35416748        0.50000000  Mo
       atom_frac         0.54166691        0.39583292        0.51521246  S
       atom_frac         0.54166691        0.39583292        0.48478754  S
       atom_frac         0.45833284        0.47916748        0.50000000  Mo
       atom_frac         0.54166691        0.52083292        0.48478754  S
       atom_frac         0.45833284        0.60416748        0.50000000  Mo
       atom_frac         0.54166691        0.64583292        0.51521246  S
       atom_frac         0.54166691        0.64583292        0.48478754  S
       atom_frac         0.45833284        0.72916748        0.50000000  Mo
       atom_frac         0.54166691        0.77083292        0.51521246  S
       atom_frac         0.54166691        0.77083292        0.48478754  S
       atom_frac         0.45833284        0.85416748        0.50000000  Mo
       atom_frac         0.54166691        0.89583292        0.51521246  S
       atom_frac         0.54166691        0.89583292        0.48478754  S
       atom_frac         0.58333284        0.97916748        0.50000000  Mo
       atom_frac         0.66666691        0.02083292        0.51521246  S
       atom_frac         0.66666691        0.02083292        0.48478754  S
       atom_frac         0.58333284        0.10416748        0.50000000  Mo
       atom_frac         0.66666691        0.14583292        0.51521246  S
       atom_frac         0.66666691        0.14583292        0.48478754  S
       atom_frac         0.58333284        0.22916748        0.50000000  Mo
       atom_frac         0.66666691        0.27083292        0.51521246  S
       atom_frac         0.66666691        0.27083292        0.48478754  S
       atom_frac         0.58333284        0.35416748        0.50000000  Mo
       atom_frac         0.66666691        0.39583292        0.51521246  S
       atom_frac         0.66666691        0.39583292        0.48478754  S
       atom_frac         0.58333284        0.47916748        0.50000000  Mo
       atom_frac         0.66666691        0.52083292        0.51521246  S
       atom_frac         0.66666691        0.52083292        0.48478754  S
       atom_frac         0.58333284        0.60416748        0.50000000  Mo
       atom_frac         0.66666691        0.64583292        0.51521246  S
       atom_frac         0.66666691        0.64583292        0.48478754  S
       atom_frac         0.58333284        0.72916748        0.50000000  Mo
       atom_frac         0.66666691        0.77083292        0.51521246  S
       atom_frac         0.66666691        0.77083292        0.48478754  S
       atom_frac         0.58333284        0.85416748        0.50000000  Mo
       atom_frac         0.66666691        0.89583292        0.51521246  S
       atom_frac         0.66666691        0.89583292        0.48478754  S
       atom_frac         0.70833284        0.97916748        0.50000000  Mo
       atom_frac         0.79166691        0.02083292        0.51521246  S
       atom_frac         0.79166691        0.02083292        0.48478754  S
       atom_frac         0.70833284        0.10416748        0.50000000  Mo
       atom_frac         0.79166691        0.14583292        0.51521246  S
       atom_frac         0.79166691        0.14583292        0.48478754  S
       atom_frac         0.70833284        0.22916748        0.50000000  Mo
       atom_frac         0.79166691        0.27083292        0.51521246  S
       atom_frac         0.79166691        0.27083292        0.48478754  S
       atom_frac         0.70833284        0.35416748        0.50000000  Mo
       atom_frac         0.79166691        0.39583292        0.51521246  S
       atom_frac         0.79166691        0.39583292        0.48478754  S
       atom_frac         0.70833284        0.47916748        0.50000000  Mo
       atom_frac         0.79166691        0.52083292        0.51521246  S
       atom_frac         0.79166691        0.52083292        0.48478754  S
       atom_frac         0.70833284        0.60416748        0.50000000  Mo
       atom_frac         0.79166691        0.64583292        0.51521246  S
       atom_frac         0.79166691        0.64583292        0.48478754  S
       atom_frac         0.70833284        0.72916748        0.50000000  Mo
       atom_frac         0.79166691        0.77083292        0.51521246  S
       atom_frac         0.79166691        0.77083292        0.48478754  S
       atom_frac         0.70833284        0.85416748        0.50000000  Mo
       atom_frac         0.79166691        0.89583292        0.51521246  S
       atom_frac         0.79166691        0.89583292        0.48478754  S
       atom_frac         0.83333284        0.97916748        0.50000000  Mo
       atom_frac         0.91666691        0.02083292        0.51521246  S
       atom_frac         0.91666691        0.02083292        0.48478754  S
       atom_frac         0.83333284        0.10416748        0.50000000  Mo
       atom_frac         0.91666691        0.14583292        0.51521246  S
       atom_frac         0.91666691        0.14583292        0.48478754  S
       atom_frac         0.83333284        0.22916748        0.50000000  Mo
       atom_frac         0.91666691        0.27083292        0.51521246  S
       atom_frac         0.91666691        0.27083292        0.48478754  S
       atom_frac         0.83333284        0.35416748        0.50000000  Mo
       atom_frac         0.91666691        0.39583292        0.51521246  S
       atom_frac         0.91666691        0.39583292        0.48478754  S
       atom_frac         0.83333284        0.47916748        0.50000000  Mo
       atom_frac         0.91666691        0.52083292        0.51521246  S
       atom_frac         0.91666691        0.52083292        0.48478754  S
       atom_frac         0.83333284        0.60416748        0.50000000  Mo
       atom_frac         0.91666691        0.64583292        0.51521246  S
       atom_frac         0.91666691        0.64583292        0.48478754  S
       atom_frac         0.83333284        0.72916748        0.50000000  Mo
       atom_frac         0.91666691        0.77083292        0.51521246  S
       atom_frac         0.91666691        0.77083292        0.48478754  S
       atom_frac         0.83333284        0.85416748        0.50000000  Mo
       atom_frac         0.91666691        0.89583292        0.51521246  S
       atom_frac         0.91666691        0.89583292        0.48478754  S

  Initial moments and charges:
  |  Atom   Moment         Charge        Species
  |     1   0.100000E+01   0.000000E+00   Mo
  |     2   0.100000E+01   0.000000E+00   S
  |     3   0.100000E+01   0.000000E+00   S
  |     4   0.100000E+01   0.000000E+00   Mo
  |     5   0.100000E+01   0.000000E+00   S
  |     6   0.100000E+01   0.000000E+00   S
[...]
  |    52   -0.000000   -0.000000   -0.000000   -0.000000    0.000000   -0.000000
  |    53    0.000000    0.000000    0.000000    0.000000    0.000000    0.000000
  |    54    0.000000    0.000000    0.000000    0.000000    0.000000    0.000000
  |    55   -0.000000   -0.000000   -0.000000   -0.000000    0.000000    0.000000
  |    56    0.000000    0.000000    0.000000    0.000000    0.000000    0.000000
  |    57    0.000000    0.000000    0.000000    0.000000    0.000000    0.000000
  |    58   -0.000001   -0.000000   -0.000000   -0.000000   -0.000000   -0.000000
  |    59   -0.000000   -0.000000   -0.000000    0.000000    0.000000    0.000000
  |    60   -0.000000   -0.000000   -0.000000    0.000000    0.000000    0.000000
  |    61   -0.000000   -0.000000   -0.000000   -0.000000    0.000000    0.000000
  |    62    0.000000    0.000000    0.000000    0.000000    0.000000    0.000000
  |    63    0.000000    0.000000    0.000000    0.000000    0.000000    0.000000
  |    64   -0.000000   -0.000000   -0.000000   -0.000000    0.000000   -0.000000
  |    65    0.000000    0.000000    0.000000    0.000000    0.000000    0.000000
  |    66    0.000000    0.000000    0.000000    0.000000    0.000000    0.000000
  |    67   -0.000000   -0.000000   -0.000000   -0.000000    0.000000   -0.000000
  |    68    0.000000    0.000000    0.000000    0.000000    0.000000    0.000000
  |    69    0.000000    0.000000    0.000000    0.000000    0.000000    0.000000
  |    70   -0.000000   -0.000000   -0.000000   -0.000000    0.000000   -0.000000
  |    71    0.000000    0.000000    0.000000    0.000000    0.000000    0.000000
  |    72    0.000000    0.000000    0.000000    0.000000    0.000000    0.000000
  |    73   -0.000000   -0.000000   -0.000000   -0.000000    0.000000   -0.000000
  |    74    0.000000    0.000000    0.000000    0.000000    0.000000    0.000000
  |    75    0.000000    0.000000    0.000000    0.000000    0.000000    0.000000
  |    76   -0.000000   -0.000000   -0.000000   -0.000000    0.000000   -0.000000
  |    77    0.000000    0.000000    0.000000    0.000000    0.000000    0.000000
  |    78    0.000000    0.000000    0.000000    0.000000    0.000000    0.000000
  |    79   -0.000001   -0.000000   -0.000000   -0.000001   -0.000000    0.000000
  |    80   -0.000000   -0.000000   -0.000000    0.000000    0.000000    0.000000
  |    81   -0.000000   -0.000000   -0.000000    0.000000    0.000000    0.000000
  |    82    0.000001    0.000000    0.000000    0.000001    0.000000   -0.000000
  |    83    0.000000    0.000000    0.000000    0.000000    0.000000    0.000000
  |    84    0.000000    0.000000    0.000000    0.000000    0.000000    0.000000
  |    85    0.000001    0.000000    0.000000    0.000001    0.000000   -0.000000
  |    86    0.000000    0.000000    0.000000    0.000000    0.000000    0.000000
  |    87    0.000000    0.000000    0.000000    0.000000    0.000000    0.000000
  |    88   -0.000001   -0.000000   -0.000000   -0.000001   -0.000000    0.000000
  |    89   -0.000000   -0.000000   -0.000000    0.000000    0.000000    0.000000
  |    90   -0.000000   -0.000000   -0.000000    0.000000    0.000000    0.000000
  |    91   -0.000000   -0.000000   -0.000000   -0.000000    0.000000   -0.000000
  |    92    0.000000    0.000000    0.000000    0.000000    0.000000    0.000000
  |    93    0.000000    0.000000    0.000000    0.000000    0.000000    0.000000
  |    94   -0.000000   -0.000000   -0.000000   -0.000000    0.000000   -0.000000
  |    95    0.000000    0.000000    0.000000    0.000000    0.000000    0.000000
  |    96    0.000000    0.000000    0.000000    0.000000    0.000000    0.000000
  |    97   -0.000000   -0.000000   -0.000000   -0.000000    0.000000   -0.000000
  |    98    0.000000    0.000000    0.000000    0.000000    0.000000    0.000000
  |    99    0.000000    0.000000    0.000000    0.000000    0.000000    0.000000
  |   100   -0.000000   -0.000000   -0.000000   -0.000000    0.000000   -0.000000
  |   101    0.000000    0.000000    0.000000    0.000000    0.000000    0.000000
  |   102    0.000000    0.000000    0.000000    0.000000    0.000000    0.000000
  |   103   -0.000001   -0.000000   -0.000000   -0.000001   -0.000000    0.000000
  |   104    0.000000    0.000000    0.000000    0.000000    0.000000    0.000000
  |   105    0.000000    0.000000    0.000000    0.000000    0.000000    0.000000
  |   106    0.000002    0.000000    0.000000    0.000001    0.000000   -0.000000
  |   107    0.000000    0.000000    0.000000    0.000000    0.000000    0.000000
  |   108    0.000000    0.000000    0.000000    0.000000    0.000000    0.000000
  |   109   -0.000002   -0.000000   -0.000000   -0.000002   -0.000000   -0.000000
  |   110    0.000001    0.000000    0.000001    0.000000    0.000000   -0.000000
  |   111    0.000002    0.000000    0.000000    0.000001    0.000000   -0.000000
  |   112    0.000000    0.000000    0.000000    0.000000    0.000000    0.000000
  |   113    0.000000    0.000000    0.000000    0.000000    0.000000    0.000000
  |   114   -0.000001   -0.000000   -0.000000   -0.000001   -0.000000    0.000000
  |   115    0.000000    0.000000    0.000000    0.000000    0.000000    0.000000
  |   116    0.000000    0.000000    0.000000    0.000000    0.000000    0.000000
  |   117   -0.000000   -0.000000   -0.000000   -0.000000    0.000000   -0.000000
  |   118    0.000000    0.000000    0.000000    0.000000    0.000000    0.000000
  |   119    0.000000    0.000000    0.000000    0.000000    0.000000    0.000000
  |   120   -0.000000   -0.000000   -0.000000   -0.000000    0.000000   -0.000000
  |   121    0.000000    0.000000    0.000000    0.000000    0.000000    0.000000
  |   122    0.000000    0.000000    0.000000    0.000000    0.000000    0.000000
  |   123   -0.000000   -0.000000   -0.000000   -0.000000    0.000000   -0.000000
  |   124    0.000000    0.000000    0.000000    0.000000    0.000000    0.000000
  |   125    0.000000    0.000000    0.000000    0.000000    0.000000    0.000000
  |   126   -0.000000   -0.000000   -0.000000   -0.000000    0.000000    0.000000
  |   127    0.000000    0.000000    0.000000    0.000000    0.000000    0.000000
  |   128    0.000000    0.000000    0.000000    0.000000    0.000000    0.000000
  |   129    0.000001    0.000000    0.000000    0.000001    0.000000   -0.000000
  |   130   -0.000000   -0.000000   -0.000000    0.000000    0.000000    0.000000
  |   131   -0.000000   -0.000000   -0.000000    0.000000    0.000000    0.000000
  |   132   -0.000002   -0.000000   -0.000000   -0.000002   -0.000000   -0.000000
  |   133    0.000000    0.000000    0.000000    0.000000    0.000000    0.000000
  |   134    0.000000    0.000000    0.000000    0.000000    0.000000    0.000000
  |   135   -0.000002   -0.000000   -0.000000   -0.000002   -0.000000   -0.000000
  |   136    0.000000    0.000000    0.000000    0.000000    0.000000    0.000000
  |   137    0.000000    0.000000    0.000000    0.000000    0.000000    0.000000
  |   138    0.000001    0.000000    0.000000    0.000001    0.000000   -0.000000
  |   139   -0.000000   -0.000000   -0.000000    0.000000    0.000000    0.000000
  |   140   -0.000000   -0.000000   -0.000000    0.000000    0.000000    0.000000
  |   141   -0.000000   -0.000000   -0.000000   -0.000000    0.000000    0.000000
  |   142    0.000000    0.000000    0.000000    0.000000    0.000000    0.000000
  |   143    0.000000    0.000000    0.000000    0.000000    0.000000    0.000000
  |   144   -0.000000   -0.000000   -0.000000   -0.000000    0.000000   -0.000000
  |   145    0.000000    0.000000    0.000000    0.000000    0.000000    0.000000
  |   146    0.000000    0.000000    0.000000    0.000000    0.000000    0.000000
  |   147   -0.000000   -0.000000   -0.000000   -0.000000    0.000000   -0.000000
  |   148    0.000000    0.000000    0.000000    0.000000    0.000000    0.000000
  |   149    0.000000    0.000000    0.000000    0.000000    0.000000    0.000000
  |   150   -0.000000   -0.000000   -0.000000   -0.000000    0.000000   -0.000000
  |   151    0.000000    0.000000    0.000000    0.000000    0.000000    0.000000
  |   152    0.000000    0.000000    0.000000    0.000000    0.000000    0.000000
  |   153   -0.000001   -0.000000   -0.000000   -0.000000   -0.000000   -0.000000
  |   154    0.000000    0.000000    0.000000    0.000000    0.000000    0.000000
  |   155    0.000000    0.000000    0.000000    0.000000    0.000000    0.000000
  |   156    0.000001    0.000000    0.000000    0.000001    0.000000   -0.000000
  |   157    0.000000    0.000000    0.000000    0.000000    0.000000    0.000000
  |   158    0.000000    0.000000    0.000000    0.000000    0.000000    0.000000
  |   159    0.000002    0.000000    0.000000    0.000001    0.000000   -0.000000
  |   160   -0.000000   -0.000000   -0.000000    0.000000    0.000000    0.000000
  |   161   -0.000000   -0.000000   -0.000000    0.000000    0.000000    0.000000
  |   162    0.000001    0.000000    0.000000    0.000001    0.000000   -0.000000
  |   163    0.000000    0.000000    0.000000    0.000000    0.000000    0.000000
  |   164    0.000000    0.000000    0.000000    0.000000    0.000000    0.000000
  |   165   -0.000001   -0.000000   -0.000000   -0.000000   -0.000000   -0.000000
  |   166    0.000000    0.000000    0.000000    0.000000    0.000000    0.000000
  |   167    0.000000    0.000000    0.000000    0.000000    0.000000    0.000000
  |   168   -0.000000   -0.000000   -0.000000   -0.000000    0.000000   -0.000000
  |   169    0.000000    0.000000    0.000000    0.000000    0.000000    0.000000
  |   170    0.000000    0.000000    0.000000    0.000000    0.000000    0.000000
  |   171   -0.000000   -0.000000   -0.000000   -0.000000    0.000000   -0.000000
  |   172    0.000000    0.000000    0.000000    0.000000    0.000000    0.000000
  |   173    0.000000    0.000000    0.000000    0.000000    0.000000    0.000000
  |   174   -0.000000   -0.000000   -0.000000   -0.000000    0.000000   -0.000000
  |   175    0.000000    0.000000    0.000000    0.000000    0.000000    0.000000
  |   176    0.000000    0.000000    0.000000    0.000000    0.000000    0.000000
  |   177   -0.000000   -0.000000   -0.000000   -0.000000    0.000000   -0.000000
  |   178    0.000000    0.000000    0.000000    0.000000    0.000000    0.000000
  |   179    0.000000    0.000000    0.000000    0.000000    0.000000    0.000000
  |   180   -0.000000   -0.000000   -0.000000   -0.000000    0.000000    0.000000
  |   181    0.000000    0.000000    0.000000    0.000000    0.000000    0.000000
  |   182    0.000000    0.000000    0.000000    0.000000    0.000000    0.000000
  |   183   -0.000001   -0.000000   -0.000000   -0.000001   -0.000000    0.000000
  |   184    0.000000    0.000000    0.000000    0.000000    0.000000    0.000000
  |   185    0.000000    0.000000    0.000000    0.000000    0.000000    0.000000
  |   186   -0.000001   -0.000000   -0.000000   -0.000001   -0.000000    0.000000
  |   187    0.000000    0.000000    0.000000    0.000000    0.000000    0.000000
  |   188    0.000000    0.000000    0.000000    0.000000    0.000000    0.000000
  |   189   -0.000000   -0.000000   -0.000000   -0.000000    0.000000    0.000000
  |   190    0.000000    0.000000    0.000000    0.000000    0.000000    0.000000
  |   191    0.000000    0.000000    0.000000    0.000000    0.000000    0.000000
  |
  | Total   -0.000000
 
  Calculating angular momentum projected density of states ...
  | Chemical potential is  -5.400350 eV.
  | writing  spin_up projected DOS (shifted by the chemical potential) for species S to file S_l_proj_dos_tetrahedron_spin_up.dat.
  | writing  spin_up projected DOS (raw data) for species S to file S_l_proj_dos_tetrahedron_spin_up_raw.dat.
  | writing  spin_dn projected DOS (shifted by the chemical potential) for species S to file S_l_proj_dos_tetrahedron_spin_dn.dat.
  | writing  spin_dn projected DOS (raw data) for species S to file S_l_proj_dos_tetrahedron_spin_dn_raw.dat.
  | writing  spin_up projected DOS (shifted by the chemical potential) for species Mo to file Mo_l_proj_dos_tetrahedron_spin_up.dat.
  | writing  spin_up projected DOS (raw data) for species Mo to file Mo_l_proj_dos_tetrahedron_spin_up_raw.dat.
  | writing  spin_dn projected DOS (shifted by the chemical potential) for species Mo to file Mo_l_proj_dos_tetrahedron_spin_dn.dat.
  | writing  spin_dn projected DOS (raw data) for species Mo to file Mo_l_proj_dos_tetrahedron_spin_dn_raw.dat.
  | writing  spin_up projected DOS (shifted by the chemical potential) for species Au to file Au_l_proj_dos_tetrahedron_spin_up.dat.
  | writing  spin_up projected DOS (raw data) for species Au to file Au_l_proj_dos_tetrahedron_spin_up_raw.dat.
  | writing  spin_dn projected DOS (shifted by the chemical potential) for species Au to file Au_l_proj_dos_tetrahedron_spin_dn.dat.
  | writing  spin_dn projected DOS (raw data) for species Au to file Au_l_proj_dos_tetrahedron_spin_dn_raw.dat.

  Mulliken analysis                                       :  max(cpu_time)    wall_clock(cpu1)
  | Time for Mulliken analysis                            :         12.543              12.576
  | Total time for Mulliken analysis                      :         12.543              12.576
------------------------------------------------------------

------------------------------------------------------------------------------
  Final output of selected total energy values:

  The following output summarizes some interesting total energy values
  at the end of a run (AFTER all relaxation, molecular dynamics, etc.).

  | Total energy of the DFT / Hartree-Fock s.c.f. calculation      :       -8500946.682846766 eV
  | Final zero-broadening corrected energy (caution - metals only) :       -8500946.682846766 eV
  | For reference only, the value of 1 Hartree used in FHI-aims is :             27.211384500 eV
  | For reference only, the overall average (free atom contribution
  | + realspace contribution) of the electrostatic potential after
  | s.c.f. convergence is                                          :             -1.088427548 eV

  Before relying on these values, please be sure to understand exactly which
  total energy value is referred to by a given number. Different objects may
  all carry the same name 'total energy'. Definitions:

  Total energy of the DFT / Hartree-Fock s.c.f. calculation:
  | Note that this energy does not include ANY quantities calculated after the
  | s.c.f. cycle, in particular not ANY RPA, MP2, etc. many-body perturbation terms.

  Final zero-broadening corrected energy:
  | For metallic systems only, a broadening of the occupation numbers at the Fermi
  | level can be extrapolated back to zero broadening by an electron-gas inspired
  | formula. For all systems that are not real metals, this value can be
  | meaningless and should be avoided.

------------------------------------------------------------------------------
  Methods described in the following list of references were used in this FHI-aims run.
  If you publish the results, please make sure to cite these reference if they apply.
  FHI-aims is an academic code, and for our developers (often, Ph.D. students
  and postdocs), scientific credit in the community is essential.
  Thank you for helping us!

  For any use of FHI-aims, please cite:

    Volker Blum, Ralf Gehrke, Felix Hanke, Paula Havu, Ville Havu,
    Xinguo Ren, Karsten Reuter, and Matthias Scheffler
    'Ab initio molecular simulations with numeric atom-centered orbitals'
    Computer Physics Communications 180, 2175-2196 (2009)
    http://doi.org/10.1016/j.cpc.2009.06.022


  The provided symmetry information was generated with SPGlib:

    Atsushi Togo, Yusuke Seto, Dimitar Pashov
    SPGlib 1.7.3 obtained from http://spglib.sourceforge.net
    Copyright (C) 2008 Atsushi Togo


  The ELSI infrastructure was used in your run to solve the Kohn-Sham electronic structure.
  Please check out http://elsi-interchange.org to learn more.
  If scalability is important for your project, please acknowledge ELSI by citing:

    V. W-z. Yu, F. Corsetti, A. Garcia, W. P. Huhn, M. Jacquelin, W. Jia,
    B. Lange, L. Lin, J. Lu, W. Mi, A. Seifitokaldani, A. Vazquez-Mayagoitia,
    C. Yang, H. Yang, and V. Blum
    'ELSI: A unified software interface for Kohn-Sham electronic structure solvers'
    Computer Physics Communications 222, 267-285 (2018).
    http://doi.org/10.1016/j.cpc.2017.09.007


  For the real-space grid partitioning and parallelization used in this calculation, please cite:

    Ville Havu, Volker Blum, Paula Havu, and Matthias Scheffler,
    'Efficient O(N) integration for all-electron electronic structure calculation'
    'using numerically tabulated basis functions'
    Journal of Computational Physics 228, 8367-8379 (2009).
    http://doi.org/10.1016/j.jcp.2009.08.008

  Of course, there are many other important community references, e.g., those cited in the
  above references. Our list is limited to references that describe implementations in the
  FHI-aims code. The reason is purely practical (length of this list) - please credit others as well.

------------------------------------------------------------
          Leaving FHI-aims.
          Date     :  20220427, Time     :  120527.859

          Computational steps:
          | Number of self-consistency cycles          :           31
          | Number of SCF (re)initializations          :            1

          Detailed time accounting                     :  max(cpu_time)    wall_clock(cpu1)
          | Total time                                  :     2974.633 s        2975.790 s
          | Preparation time                            :        1.130 s           1.294 s
          | Boundary condition initalization            :        2.021 s           2.012 s
          | Grid partitioning                           :        7.714 s           7.715 s
          | Preloading free-atom quantities on grid     :        5.506 s           5.507 s
          | Free-atom superposition energy              :        0.160 s           0.160 s
          | Total time for integrations                 :      192.088 s         192.081 s
          | Total time for solution of K.-S. equations  :     1775.843 s        1775.819 s
          | Total time for density update               :      630.989 s         630.997 s
          | Total time for mixing & preconditioning     :      187.064 s         186.920 s
          | Total time for Hartree multipole update     :        0.869 s           0.867 s
          | Total time for Hartree multipole sum        :      124.367 s         124.370 s
          | Total time for total energy evaluation      :        0.110 s           0.100 s
          | Total time for scaled ZORA corrections      :        0.000 s           0.000 s
          | Total time for vdW correction               :       34.698 s          34.703 s
          | Total time for Mulliken analysis            :       12.543 s          12.576 s

          Partial memory accounting:
          | Residual value for overall tracked memory usage across tasks:     0.000000 MB (should be 0.000000 MB)
          | Peak values for overall tracked memory usage:
          |   Minimum:      265.591 MB (on task 190 after allocating mulliken_decomp)
          |   Maximum:      288.825 MB (on task 132 after allocating wave)
          |   Average:      273.985 MB
          | Largest tracked array allocation:
          |   Minimum:       67.145 MB (ham_complex on task  13)
          |   Maximum:       72.430 MB (ham_complex on task 116)
          |   Average:       69.334 MB
          Note:  These values currently only include a subset of arrays which are explicitly tracked.
          The "true" memory usage will be greater.

          Have a nice day.
------------------------------------------------------------
