------------------------------------------------------------
          Invoking FHI-aims ...

          When using FHI-aims, please cite the following reference:

            Volker Blum, Ralf Gehrke, Felix Hanke, Paula Havu,
            Ville Havu, Xinguo Ren, Karsten Reuter, and Matthias Scheffler,
            'Ab Initio Molecular Simulations with Numeric Atom-Centered Orbitals',
            Computer Physics Communications 180, 2175-2196 (2009)

          In addition, many other developments in FHI-aims are likely important for
          your particular application. A partial list of references is given at the end of
          this file. Thank you for giving credit to the authors of these developments.

          For any questions about FHI-aims, please visit our slack channel at

            https://fhi-aims.slack.com

          and our main development and support site at

            https://aims-git.rz-berlin.mpg.de .

          The latter site, in particular, has a wiki to collect information, as well
          as an issue tracker to log discussions, suggest improvements, and report issues
          or bugs. https://aims-git.rz-berlin.mpg.de is also the main development site
          of the project and all new and updated code versions can be obtained there.
          Please send an email to aims-coordinators@fhi-berlin.mpg.de and we will add
          you to these sites. They are for you and everyone is welcome there.

------------------------------------------------------------



  Date     :  20220913, Time     :  153016.287
  Time zero on CPU 1             :   0.330617400000000E+01  s.
  Internal wall clock time zero  :           432315016.287  s.

  FHI-aims created a unique identifier for this run for later identification
  aims_uuid : 62C5ABA6-22A9-4A4E-A016-7164FCC7EFE5

  Build configuration of the current instance of FHI-aims
  -------------------------------------------------------
  FHI-aims version      : 220117
  Commit number         : 0c0e6afe2
  CMake host system     : Linux-5.3.18-24.99-default
  CMake version         : 3.22.0
  Fortran compiler      : /mpcdf/soft/SLE_15/packages/x86_64/intel_oneapi/2021.4/mpi/2021.4.0/bin/mpiifort (Intel) version 2021.4.0.20210910
  Fortran compiler flags: -O3 -ip -fp-model precise
  C compiler            : /mpcdf/soft/SLE_15/packages/x86_64/intel/2021.4.0/bin/icc (Intel) version 2021.4.0.20210910
  C compiler flags      : -O3 -ip -fp-model precise
  C++ compiler          : /mpcdf/soft/SLE_15/packages/x86_64/intel/2021.4.0/bin/icpc (Intel) version 2021.4.0.20210910
  C++ compiler flags    : -O3 -ip -fp-model precise
  Using MPI
  Using ScaLAPACK
  Using LibXC
  Using i-PI
  Using RLSY
  Linking against: /mpcdf/soft/SLE_15/packages/x86_64/intel_oneapi/2021.4/mkl/latest/lib/intel64/libmkl_intel_lp64.so
                   /mpcdf/soft/SLE_15/packages/x86_64/intel_oneapi/2021.4/mkl/latest/lib/intel64/libmkl_sequential.so
                   /mpcdf/soft/SLE_15/packages/x86_64/intel_oneapi/2021.4/mkl/latest/lib/intel64/libmkl_core.so
                   /mpcdf/soft/SLE_15/packages/x86_64/intel_oneapi/2021.4/mkl/latest/lib/intel64/libmkl_blacs_intelmpi_lp64.so
                   /mpcdf/soft/SLE_15/packages/x86_64/intel_oneapi/2021.4/mkl/latest/lib/intel64/libmkl_scalapack_lp64.so

  Using      216 parallel tasks.
  Task        0 on host ravg1062 reporting.
  Task        1 on host ravg1062 reporting.
  Task        2 on host ravg1062 reporting.
  Task        3 on host ravg1062 reporting.
  Task        4 on host ravg1062 reporting.
  Task        5 on host ravg1062 reporting.
  Task        6 on host ravg1062 reporting.
  Task        7 on host ravg1062 reporting.
  Task        8 on host ravg1062 reporting.
  Task        9 on host ravg1062 reporting.
  Task       10 on host ravg1062 reporting.
  Task       11 on host ravg1062 reporting.
  Task       12 on host ravg1062 reporting.
  Task       13 on host ravg1062 reporting.
  Task       14 on host ravg1062 reporting.
  Task       15 on host ravg1062 reporting.
  Task       16 on host ravg1062 reporting.
  Task       17 on host ravg1062 reporting.
  Task       18 on host ravg1062 reporting.
  Task       19 on host ravg1062 reporting.
  Task       20 on host ravg1062 reporting.
  Task       21 on host ravg1062 reporting.
  Task       22 on host ravg1062 reporting.
  Task       23 on host ravg1062 reporting.
  Task       24 on host ravg1062 reporting.
  Task       25 on host ravg1062 reporting.
  Task       26 on host ravg1062 reporting.
  Task       27 on host ravg1062 reporting.
  Task       28 on host ravg1062 reporting.
  Task       29 on host ravg1062 reporting.
  Task       30 on host ravg1062 reporting.
  Task       31 on host ravg1062 reporting.
  Task       32 on host ravg1062 reporting.
  Task       33 on host ravg1062 reporting.
  Task       34 on host ravg1062 reporting.
  Task       35 on host ravg1062 reporting.
  Task       36 on host ravg1062 reporting.
  Task       37 on host ravg1062 reporting.
  Task       38 on host ravg1062 reporting.
  Task       39 on host ravg1062 reporting.
  Task       40 on host ravg1062 reporting.
  Task       41 on host ravg1062 reporting.
  Task       42 on host ravg1062 reporting.
  Task       43 on host ravg1062 reporting.
  Task       44 on host ravg1062 reporting.
  Task       45 on host ravg1062 reporting.
  Task       46 on host ravg1062 reporting.
  Task       47 on host ravg1062 reporting.
  Task       48 on host ravg1062 reporting.
  Task       49 on host ravg1062 reporting.
  Task       50 on host ravg1062 reporting.
  Task       51 on host ravg1062 reporting.
  Task       52 on host ravg1062 reporting.
  Task       53 on host ravg1062 reporting.
  Task       54 on host ravg1062 reporting.
  Task       55 on host ravg1062 reporting.
  Task       56 on host ravg1062 reporting.
  Task       57 on host ravg1062 reporting.
  Task       58 on host ravg1062 reporting.
  Task       59 on host ravg1062 reporting.
  Task       60 on host ravg1062 reporting.
  Task       61 on host ravg1062 reporting.
  Task       62 on host ravg1062 reporting.
  Task       63 on host ravg1062 reporting.
  Task       64 on host ravg1062 reporting.
  Task       65 on host ravg1062 reporting.
  Task       66 on host ravg1062 reporting.
  Task       67 on host ravg1062 reporting.
  Task       68 on host ravg1062 reporting.
  Task       69 on host ravg1062 reporting.
  Task       70 on host ravg1062 reporting.
  Task       71 on host ravg1062 reporting.
  Task       72 on host ravg1063 reporting.
  Task       73 on host ravg1063 reporting.
  Task       74 on host ravg1063 reporting.
  Task       75 on host ravg1063 reporting.
  Task       76 on host ravg1063 reporting.
  Task       77 on host ravg1063 reporting.
  Task       78 on host ravg1063 reporting.
  Task       79 on host ravg1063 reporting.
  Task       80 on host ravg1063 reporting.
  Task       81 on host ravg1063 reporting.
  Task       82 on host ravg1063 reporting.
  Task       83 on host ravg1063 reporting.
  Task       84 on host ravg1063 reporting.
  Task       85 on host ravg1063 reporting.
  Task       86 on host ravg1063 reporting.
  Task       87 on host ravg1063 reporting.
  Task       88 on host ravg1063 reporting.
  Task       89 on host ravg1063 reporting.
  Task       90 on host ravg1063 reporting.
  Task       91 on host ravg1063 reporting.
  Task       92 on host ravg1063 reporting.
  Task       93 on host ravg1063 reporting.
  Task       94 on host ravg1063 reporting.
  Task       95 on host ravg1063 reporting.
  Task       96 on host ravg1063 reporting.
  Task       97 on host ravg1063 reporting.
  Task       98 on host ravg1063 reporting.
  Task       99 on host ravg1063 reporting.
  Task      100 on host ravg1063 reporting.
  Task      101 on host ravg1063 reporting.
  Task      102 on host ravg1063 reporting.
  Task      103 on host ravg1063 reporting.
  Task      104 on host ravg1063 reporting.
  Task      105 on host ravg1063 reporting.
  Task      106 on host ravg1063 reporting.
  Task      107 on host ravg1063 reporting.
  Task      108 on host ravg1063 reporting.
  Task      109 on host ravg1063 reporting.
  Task      110 on host ravg1063 reporting.
  Task      111 on host ravg1063 reporting.
  Task      112 on host ravg1063 reporting.
  Task      113 on host ravg1063 reporting.
  Task      114 on host ravg1063 reporting.
  Task      115 on host ravg1063 reporting.
  Task      116 on host ravg1063 reporting.
  Task      117 on host ravg1063 reporting.
  Task      118 on host ravg1063 reporting.
  Task      119 on host ravg1063 reporting.
  Task      120 on host ravg1063 reporting.
  Task      121 on host ravg1063 reporting.
  Task      122 on host ravg1063 reporting.
  Task      123 on host ravg1063 reporting.
  Task      124 on host ravg1063 reporting.
  Task      125 on host ravg1063 reporting.
  Task      126 on host ravg1063 reporting.
  Task      127 on host ravg1063 reporting.
  Task      128 on host ravg1063 reporting.
  Task      129 on host ravg1063 reporting.
  Task      130 on host ravg1063 reporting.
  Task      131 on host ravg1063 reporting.
  Task      132 on host ravg1063 reporting.
  Task      133 on host ravg1063 reporting.
  Task      134 on host ravg1063 reporting.
  Task      135 on host ravg1063 reporting.
  Task      136 on host ravg1063 reporting.
  Task      137 on host ravg1063 reporting.
  Task      138 on host ravg1063 reporting.
  Task      139 on host ravg1063 reporting.
  Task      140 on host ravg1063 reporting.
  Task      141 on host ravg1063 reporting.
  Task      142 on host ravg1063 reporting.
  Task      143 on host ravg1063 reporting.
  Task      144 on host ravg1064 reporting.
  Task      145 on host ravg1064 reporting.
  Task      146 on host ravg1064 reporting.
  Task      147 on host ravg1064 reporting.
  Task      148 on host ravg1064 reporting.
  Task      149 on host ravg1064 reporting.
  Task      150 on host ravg1064 reporting.
  Task      151 on host ravg1064 reporting.
  Task      152 on host ravg1064 reporting.
  Task      153 on host ravg1064 reporting.
  Task      154 on host ravg1064 reporting.
  Task      155 on host ravg1064 reporting.
  Task      156 on host ravg1064 reporting.
  Task      157 on host ravg1064 reporting.
  Task      158 on host ravg1064 reporting.
  Task      159 on host ravg1064 reporting.
  Task      160 on host ravg1064 reporting.
  Task      161 on host ravg1064 reporting.
  Task      162 on host ravg1064 reporting.
  Task      163 on host ravg1064 reporting.
  Task      164 on host ravg1064 reporting.
  Task      165 on host ravg1064 reporting.
  Task      166 on host ravg1064 reporting.
  Task      167 on host ravg1064 reporting.
  Task      168 on host ravg1064 reporting.
  Task      169 on host ravg1064 reporting.
  Task      170 on host ravg1064 reporting.
  Task      171 on host ravg1064 reporting.
  Task      172 on host ravg1064 reporting.
  Task      173 on host ravg1064 reporting.
  Task      174 on host ravg1064 reporting.
  Task      175 on host ravg1064 reporting.
  Task      176 on host ravg1064 reporting.
  Task      177 on host ravg1064 reporting.
  Task      178 on host ravg1064 reporting.
  Task      179 on host ravg1064 reporting.
  Task      180 on host ravg1064 reporting.
  Task      181 on host ravg1064 reporting.
  Task      182 on host ravg1064 reporting.
  Task      183 on host ravg1064 reporting.
  Task      184 on host ravg1064 reporting.
  Task      185 on host ravg1064 reporting.
  Task      186 on host ravg1064 reporting.
  Task      187 on host ravg1064 reporting.
  Task      188 on host ravg1064 reporting.
  Task      189 on host ravg1064 reporting.
  Task      190 on host ravg1064 reporting.
  Task      191 on host ravg1064 reporting.
  Task      192 on host ravg1064 reporting.
  Task      193 on host ravg1064 reporting.
  Task      194 on host ravg1064 reporting.
  Task      195 on host ravg1064 reporting.
  Task      196 on host ravg1064 reporting.
  Task      197 on host ravg1064 reporting.
  Task      198 on host ravg1064 reporting.
  Task      199 on host ravg1064 reporting.
  Task      200 on host ravg1064 reporting.
  Task      201 on host ravg1064 reporting.
  Task      202 on host ravg1064 reporting.
  Task      203 on host ravg1064 reporting.
  Task      204 on host ravg1064 reporting.
  Task      205 on host ravg1064 reporting.
  Task      206 on host ravg1064 reporting.
  Task      207 on host ravg1064 reporting.
  Task      208 on host ravg1064 reporting.
  Task      209 on host ravg1064 reporting.
  Task      210 on host ravg1064 reporting.
  Task      211 on host ravg1064 reporting.
  Task      212 on host ravg1064 reporting.
  Task      213 on host ravg1064 reporting.
  Task      214 on host ravg1064 reporting.
  Task      215 on host ravg1064 reporting.

  Performing system and environment tests:
  | Environment variable OMP_NUM_THREADS correctly set to 1.
  | Checking for ScaLAPACK...
  | Testing pdtran()...
  | All pdtran() tests passed.

  Obtaining array dimensions for all initial allocations:
  
  -----------------------------------------------------------------------
  Parsing control.in (first pass over file, find array dimensions only).
  The contents of control.in will be repeated verbatim below
  unless switched off by setting 'verbatim_writeout .false.' .
  in the first line of control.in .
  -----------------------------------------------------------------------
  
    ##### Physical settings  ################
    xc                 pbe
    spin               collinear
    default_initial_moment 1
    charge      0.0
    relativistic       atomic_zora scalar
    #elsi_restart read
    # SCF settings
    use_symmetric_forces .true.
    relax_geometry trm 1E-3
  
    # k-grid settings  (to be adjusted)
    k_grid  4 4 1
    #empty_states 8
    use_dipole_correction
    many_body_dispersion_nl    beta=0.81
  ################################################################################
  #
  #  FHI-aims code project
  # Volker Blum, Fritz Haber Institute Berlin, 2009
  #
  #  Suggested "tight" defaults for S atom (to be pasted into control.in file)
  #
  #  Revised Jan 04, 2011, following tests (SiC) done by Lydia Nemec:
  #     d and g functions of tier 2 now enabled by default.
  #
  ################################################################################
    species        S
  #     global species definitions
      nucleus             16
      mass                32.065
  #
      l_hartree           6
  #
      cut_pot             4.0          2.0  1.0
      basis_dep_cutoff    1e-4
  #
      radial_base         44 7.0
      radial_multiplier   2
      angular_grids       specified
        division   0.4665  110
        division   0.5810  194
        division   0.7139  302
        division   0.8274  434
  #      division   0.9105  590
  #      division   1.0975  770
  #      division   1.2028  974
  #      outer_grid  974
        outer_grid  434
  ################################################################################
  #
  #  Definition of "minimal" basis
  #
  ################################################################################
  #     valence basis states
      valence      3  s   2.
      valence      3  p   4.
  #     ion occupancy
      ion_occ      3  s   1.
      ion_occ      3  p   3.
  ################################################################################
  #
  #  Suggested additional basis functions. For production calculations,
  #  uncomment them one after another (the most important basis functions are
  #  listed first).
  #
  #  Constructed for dimers: 1.6 A, 1.9 A, 2.5 A, 3.25 A, 4.0 A
  #
  ################################################################################
  #  "First tier" - improvements: -652.81 meV to -45.53 meV
       ionic 3 d auto
       hydro 2 p 1.8
       hydro 4 f 7
       ionic 3 s auto
  #  "Second tier" - improvements: -30.20 meV to -1.74 meV
       hydro 4 d 6.2
       hydro 5 g 10.8
  #     hydro 4 p 4.9
  #     hydro 5 f 10
  #     hydro 1 s 0.8
  #  "Third tier" - improvements: -1.04 meV to -0.20 meV
  #     hydro 3 d 3.9
  #     hydro 3 d 2.7
  #     hydro 5 g 12
  #     hydro 4 p 10.4
  #     hydro 5 f 12.4
  #     hydro 2 s 1.9
  #  "Fourth tier" - improvements: -0.35 meV to -0.06 meV
  #     hydro 4 d 10.4
  #     hydro 4 p 7.2
  #     hydro 4 d 10
  #     hydro 5 g 19.2
  #     hydro 4 s 12
  
  ################################################################################
  #
  # For methods that use the localized form of the "resolution of identity" for
  # the two-electron Coulomb operator (RI_method LVL), particularly Hartree-Fock and
  # hybrid density functional calculations, the highest accuracy can be obtained by
  # uncommenting the line beginning with "for_aux"  below, thus adding an extra g radial
  # function to the construction of the product basis set for the expansion.
  # See Ref. New J. Phys. 17, 093020 (2015) for more information, particularly Figs. 1 and 6.
  #
  ################################################################################
  #
  # for_aux hydro 5 g 6.0
  ################################################################################
  #
  #  FHI-aims code project
  # Volker Blum, Fritz Haber Institute Berlin, 2009
  #
  #  Suggested "tight" defaults for Mo atom (to be pasted into control.in file)
  #
  ################################################################################
    species        Mo
  #     global species definitions
      nucleus             42
      mass                95.94
  #
      l_hartree           6
  #
      cut_pot             4.0  2.0  1.0
      basis_dep_cutoff    1e-4
  #
      radial_base         59 7.0
      radial_multiplier   2
      angular_grids specified
        division   0.3117   50
        division   0.6750  110
        division   1.0351  194
        division   1.2073  302
        division   1.6402  434
  #      division   1.9185  590
  #      division   2.0237  770
  #      division   2.0980  974
  #      division   2.7972 1202
  #      outer_grid  974
        outer_grid  434
  ################################################################################
  #
  #  Definition of "minimal" basis
  #
  ################################################################################
  #     valence basis states
      valence      5  s   1.
      valence      4  p   6.
      valence      4  d   5.
  #     ion occupancy
      ion_occ     5  s   0.
      ion_occ     4  p   6.
      ion_occ     4  d   4.
  ################################################################################
  #
  #  Suggested additional basis functions. For production calculations,
  #  uncomment them one after another (the most important basis functions are
  #  listed first).
  #
  #  Constructed for dimers: 1.675 A, 1.9 A, 2.375 A, 3.00 A, 4.00 A
  #
  ################################################################################
  #  "First tier"  - max. impr. -711.23  meV, min. impr. -21.07 meV
       hydro 4 f 8.4
       hydro 3 d 2.8
       ionic 5 p auto
       hydro 5 g 12
       ionic 5 s auto
  #  "Second tier" - max. impr. -39.38  meV, min. impr. -2.68 meV
  #     hydro 4 f 12.4
  #     hydro 3 d 3.3
  #     hydro 6 h 17.2
  #     hydro 4 f 7.6
  #     hydro 3 p 3.0
  #     hydro 1 s 0.65
  #  "Third tier"  - max. impr. -5.50 meV, min. impr. -0.47 meV
  #     hydro 4 f 29.2
  #     hydro 5 g 11.2
  #     hydro 3 d 6.8
  #     hydro 6 h 14.8
  #     hydro 2 p 2.3
  #     hydro 4 s 3.8
  #  "Fourth tier"  - max. impr. -0.58 meV, min. impr. -0.19 meV
  #     hydro 5 f 6.8
  #     hydro 5 d 14.8
  #     hydro 6 s 7.8
  #     hydro 5 g 20.8
  #     hydro 5 d 10.4
  #     hydro 5 p 9.8
  #  Further functions - -0.17 meV and below
  #     hydro 5 d 3.2
  ################################################################################
  #
  #  FHI-aims code project
  # Volker Blum, Fritz Haber Institute Berlin, 2009
  #
  #  Suggested "tight" defaults for W atom (to be pasted into control.in file)
  #
  ################################################################################
    species          W
  #     global species definitions
      nucleus        74
      mass           183.84
  #
      l_hartree      6
  #
      cut_pot        4.0  2.0  1.0
      basis_dep_cutoff    1e-4
  #
      radial_base    71  7.0
      radial_multiplier  2
      angular_grids specified
        division   0.2901   50
        division   0.6986  110
        division   1.0528  194
        division   1.2659  302
        division   1.5223  434
  #      division   1.8111  590
  #      division   2.0105  770
  #      division   2.0413  974
  #      division   2.8804 1202
  #      outer_grid  974
        outer_grid  434
  ################################################################################
  #
  #  Definition of "minimal" basis
  #
  ################################################################################
  #     valence basis states
      valence      6  s   2.
      valence      5  p   6.
      valence      5  d   4.
      valence      4  f  14.
  #     ion occupancy
      ion_occ      6  s   1.
      ion_occ      5  p   6.
      ion_occ      5  d   3.
      ion_occ      4  f  14.
  ################################################################################
  #
  #  Suggested additional basis functions. For production calculations,
  #  uncomment them one after another (the most important basis functions are
  #  listed first).
  #
  #  Constructed for dimers: 1.775, 1.99, 2.50, 3.25, 4.50 AA
  #
  ################################################################################
  #
  #  "First tier" - improvements: -603.77 meV to -28.99 meV
       hydro 4 f 7.8
       hydro 4 d 5.8
       ionic 6 p auto
       hydro 5 g 12.4
       ionic 6 s auto
  #  "Second tier" - improvements: -28.30 meV to -1.31 meV
  #     hydro 6 h 16.8
  #     ionic 5 d auto
  #     hydro 4 f 8.6
  #     hydro 5 g 16.8
  #     hydro 5 d 8.4
  #     hydro 3 p 3.3
  #     hydro 1 s 0.55
  #  "Third tier" - max. impr. -1.79 meV, min. impr. -0.26 meV
  #     hydro 5 f 10.8
  #     hydro 5 g 34.4
  #     hydro 6 h 20.8
  #     hydro 5 g 12.8
  #     hydro 2 p 1.6
  #     hydro 4 s 4.7
  #     hydro 6 d 18.4
  #  "Fourth tier" -0.46 max. impr. - meV, min. impr. -0.09 meV
  #     hydro 6 h 21.6
  #     hydro 5 f 22.4
  #     hydro 4 f 4
  #     hydro 5 p 9.6
  #     hydro 6 d 17.2
  #     hydro 3 p 5.2
  #     hydro 5 g 4.7
  #     hydro 6 s 7.6
  ################################################################################
  #
  #  FHI-aims code project
  # Volker Blum, Fritz Haber Institute Berlin, 2009
  #
  #  Suggested "tight" defaults for Se atom (to be pasted into control.in file)
  #
  ################################################################################
    species        Se
  #     global species definitions
      nucleus             34
      mass                78.96
  #
      l_hartree           6
  #
      cut_pot             4.0          2.0  1.0
      basis_dep_cutoff    1e-4
  #
      radial_base         55 7.0
      radial_multiplier   2
      angular_grids       specified
        division   0.0830  110
        division   0.1357  194
        division   0.7377  302
        division   0.8610  434
  #      division   0.9640  590
  #      division   1.0773  770
  #      division   2.5539  974
  #      outer_grid  974
        outer_grid  434
  ################################################################################
  #
  #  Definition of "minimal" basis
  #
  ################################################################################
  #     valence basis states
      valence      4  s   2.
      valence      4  p   4.
      valence      3  d  10.
  #     ion occupancy
      ion_occ      4  s   1.
      ion_occ      4  p   3.
      ion_occ      3  d  10.
  ################################################################################
  #
  #  Suggested additional basis functions. For production calculations,
  #  uncomment them one after another (the most important basis functions are
  #  listed first).
  #
  #  Constructed for dimers: 1.85 A, 2.15 A, 2.50 A, 3.00 A, 4.00 A
  #
  ################################################################################
  #  "First tier" - improvements: -336.21 meV to -36.85 meV
       hydro 3 d 4.3
       hydro 2 p 1.6
       hydro 4 f 7.2
       ionic 4 s auto
  #  "Second tier" - improvements: -14.39 meV to -1.49 meV
  #     hydro 5 g 10.4
  #     hydro 4 p 4.5
  #     hydro 4 d 6.2
  #     hydro 4 f 11.2
  #     hydro 1 s 0.65
  #     hydro 6 h 15.2
  #  "Third tier" - improvements: -0.46 meV and below
  #     hydro 5 g 14.4
  #     ionic 4 d auto
  #     hydro 4 f 22.4
  #     hydro 5 f 7.4
  #     hydro 5 p 8
  #     hydro 5 s 9.4
  #  "Fourth tier" - improvements: -0.12 meV and below
  #     hydro 5 d 11.6
  #     hydro 6 h 18
  #     hydro 4 p 4
  #     hydro 5 f 16
  #     hydro 4 s 3.9
  
  
  
  -----------------------------------------------------------------------
  Completed first pass over input file control.in .
  -----------------------------------------------------------------------
  
  
  -----------------------------------------------------------------------
  Parsing geometry.in (first pass over file, find array dimensions only).
  The contents of geometry.in will be repeated verbatim below
  unless switched off by setting 'verbatim_writeout .false.' .
  in the first line of geometry.in .
  -----------------------------------------------------------------------
  
  #
  # This is the geometry file that corresponds to the current relaxation step.
  # If you do not want this file to be written, set the "write_restart_geometry" flag to .false.
  #  aims_uuid : 017E2ACD-C653-4E6E-AA66-F11EEBFD4DEF
  #
    set_vacuum_level        53.543447
  lattice_vector     16.44347560      0.00000000      0.00000000
  lattice_vector     -8.22357185     14.23911350      0.00000000
  lattice_vector      0.00000000      0.00000000     99.63748923
  atom       0.02812858      0.99629699      2.65560966 W
  atom       1.67450497      1.94669647      4.34041608 Se
  atom       1.67426866      1.94661273      0.97038628 Se
  atom      -1.61540328      3.84341226      2.65736746 W
  atom       0.02782192      4.79262006      4.34681348 Se
  atom       0.02536676      4.79563217      0.96860344 Se
  atom      -3.25751804      6.69120112      2.65952930 W
  atom      -1.61586282      7.64167749      4.34986356 Se
  atom      -1.61577400      7.64333497      0.97137335 Se
  atom      -4.90484344      9.54336915      2.65961730 W
  atom      -3.26069368     10.48977707      4.34986588 Se
  atom      -3.25929862     10.48891352      0.97138211 Se
  atom      -6.55074392     12.38894224      2.65749623 W
  atom      -4.90693212     13.33729311      4.34682093 Se
  atom      -4.90572853     13.33356517      0.96857703 Se
  atom       3.32369860      0.99302775      2.65471467 W
  atom       4.95858998      1.94522166      4.35089443 Se
  atom       4.95895260      1.93068971      0.95079128 Se
  atom       1.67279391      3.85168468      2.65478186 W
  atom       3.31498589      4.79112393      4.35102482 Se
  atom       3.30251195      4.79897401      0.95093402 Se
  atom       0.02609444      6.69117860      2.65963616 W
  atom       1.67784333      7.63897177      4.34274501 Se
  atom       1.67252140      7.64207716      0.97488799 Se
  atom      -1.61613663      9.54044100      2.66126537 W
  atom       0.02827638     10.48982087      4.34988261 Se
  atom       0.02690934     10.48886972      0.97135059 Se
  atom      -3.26338265     12.38678350      2.65955820 W
  atom      -1.61652225     13.34330434      4.34254986 Se
  atom      -1.61658460     13.33693813      0.97468060 Se
  atom       6.60672718      1.00737117      2.65463974 W
  atom       8.25487054      1.94523685      4.35069528 Se
  atom       8.25430419      1.93055996      0.95057340 Se
  atom       4.91279475      3.81630576      2.64198046 W
  atom       6.60656817      4.79370690      4.23706260 Se
  atom       6.60798001      4.79211945      6.50058698 Se
  atom       6.60626625      4.79403722      1.00306237 Se
  atom       3.32635828      6.68738982      2.65495551 W
  atom       4.96271472      7.64551002      4.35110461 Se
  atom       4.94978993      7.65244649      0.95105500 Se
  atom       1.67255500      9.54337041      2.65966033 W
  atom       3.31751452     10.49130074      4.34689137 Se
  atom       3.31374631     10.49189073      0.96864215 Se
  atom       0.03035720     12.38676718      2.65949178 W
  atom       1.67383723     13.33734537      4.34667808 Se
  atom       1.67260803     13.33345660      0.96842430 Se
  atom       9.88976165      0.99300889      2.65446409 W
  atom      11.53878526      1.94671462      4.34016193 Se
  atom      11.53911566      1.94655198      0.97015573 Se
  atom       8.30005827      3.81626505      2.64166497 W
  atom       9.89770266      4.79108740      4.35075281 Se
  atom       9.91016906      4.79901532      0.95063100 Se
  atom       6.60601186      6.74937153      2.64209984 W
  atom       8.24925528      7.64547809      4.35104515 Se
  atom       8.26201403      7.65247911      0.95095876 Se
  atom       4.95504120      9.53744043      2.65488735 W
  atom       6.60557516     10.48866647      4.34053776 Se
  atom       6.60555323     10.48886028      0.97048606 Se
  atom       3.31776529     12.38893559      2.65740676 W
  atom       4.96173372     13.33810110      4.34521387 Se
  atom       4.96068848     13.33730336      0.96726262 Se
  atom      13.18533666      0.99625753      2.65547849 W
  atom      14.82835961      1.94515787      4.34518458 Se
  atom      14.82847479      1.94645455      0.96721560 Se
  atom      11.53997909      3.85168978      2.65449666 W
  atom      13.18467438      4.79262140      4.34667353 Se
  atom      13.18736796      4.79566646      0.96845885 Se
  atom       9.88565044      6.68737919      2.65475063 W
  atom      11.53397079      7.63891151      4.34261064 Se
  atom      11.53937231      7.64213729      0.97476663 Se
  atom       8.25621450      9.53743998      2.65485231 W
  atom       9.89360935     10.49126333      4.34687541 Se
  atom       9.89737632     10.49198521      0.96867076 Se
  atom       6.60524013     12.38962182      2.65567388 W
  atom       8.24858693     13.33805438      4.34533097 Se
  atom       8.24971948     13.33733790      0.96730881 Se
  #
  # What follows is the current estimated Hessian matrix constructed by the BFGS algorithm.
  # This is NOT the true Hessian matrix of the system.
  # If you do not want this information here, switch it off using the "hessian_to_restart_geometry" keyword.
  #
  
  -----------------------------------------------------------------------
  Completed first pass over input file geometry.in .
  -----------------------------------------------------------------------
  

  Basic array size parameters:
  | Number of species                 :        4
  | Number of atoms                   :       76
  | Number of lattice vectors         :        3
  | Max. basis fn. angular momentum   :        4
  | Max. atomic/ionic basis occupied n:        6
  | Max. number of basis fn. types    :        3
  | Max. radial fns per species/type  :       14
  | Max. logarithmic grid size        :     1483
  | Max. radial integration grid size :      143
  | Max. angular integration grid size:      434
  | Max. angular grid division number :        8
  | Radial grid for Hartree potential :     1483
  | Number of spin channels           :        2

------------------------------------------------------------
          Reading file control.in.
------------------------------------------------------------
  XC: Using PBE gradient-corrected functionals.
  Spin treatment: Spin density functional theory - collinear spins.
  Initial spin moment per atom:   1.0000
  Charge =   0.000000E+00: Neutral system requested explicitly.
  Scalar relativistic treatment of kinetic energy: on-site free-atom approximation to ZORA.
  Geometry relaxation: Modified BFGS - TRM (trust radius method) for lattice optimization.
  Convergence accuracy for geometry relaxation: Maximum force <   0.100000E-02 eV/A.
  Found k-point grid:         4         4         1
  Using dipole correction.
  Using libMBD for calculating MBD and TS energies
 
  Reading configuration options for species S                   .
  | Found nuclear charge :  16.0000
  | Found atomic mass :    32.0650000000000      amu
  | Found l_max for Hartree potential  :   6
  | Found cutoff potl. onset [A], width [A], scale factor :    4.00000    2.00000    1.00000
  | Threshold for basis-dependent cutoff potential is   0.100000E-03
  | Found data for basic radial integration grid :    44 points, outermost radius =    7.000 A
  | Found multiplier for basic radial grid :   2
  | Found angular grid specification: user-specified.
  | Specified grid contains     5 separate shells.
  | Check grid settings after all constraints further below.
  | Found free-atom valence shell :  3 s   2.000
  | Found free-atom valence shell :  3 p   4.000
  | Found free-ion valence shell :  3 s   1.000
  | Found free-ion valence shell :  3 p   3.000
  | Found ionic basis function :  3 d , default cutoff radius.
  | Found hydrogenic basis function :  2 p   1.800
  | Found hydrogenic basis function :  4 f   7.000
  | Found ionic basis function :  3 s , default cutoff radius.
  | Found hydrogenic basis function :  4 d   6.200
  | Found hydrogenic basis function :  5 g  10.800
  Species S                   : Missing cutoff potential type.
  Defaulting to exp(1/x)/(1-x)^2 type cutoff potential.
  Species S : No 'logarithmic' tag. Using default grid for free atom:
  | Default logarithmic grid data [bohr] : 0.1000E-03 0.1000E+03 0.1012E+01
  | Will include ionic basis functions of  2.0-fold positive S                    ion.
  Species S : On-site basis accuracy parameter (for Gram-Schmidt orthonormalisation) not specified.
  Using default value basis_acc =  0.1000000E-03.
  Species S                   : Using default innermost maximum threshold i_radial=  2 for radial functions.
  Species S                   : Default cutoff onset for free atom density etc. : 0.40000000E+01 AA.
  Species S                   : Basic radial grid will be enhanced according to radial_multiplier =   2, to contain    89 grid points.
 
  Reading configuration options for species Mo                  .
  | Found nuclear charge :  42.0000
  | Found atomic mass :    95.9400000000000      amu
  | Found l_max for Hartree potential  :   6
  | Found cutoff potl. onset [A], width [A], scale factor :    4.00000    2.00000    1.00000
  | Threshold for basis-dependent cutoff potential is   0.100000E-03
  | Found data for basic radial integration grid :    59 points, outermost radius =    7.000 A
  | Found multiplier for basic radial grid :   2
  | Found angular grid specification: user-specified.
  | Specified grid contains     6 separate shells.
  | Check grid settings after all constraints further below.
  | Found free-atom valence shell :  5 s   1.000
  | Found free-atom valence shell :  4 p   6.000
  | Found free-atom valence shell :  4 d   5.000
  | Found free-ion valence shell :  5 s   0.000
  | Found free-ion valence shell :  4 p   6.000
  | Found free-ion valence shell :  4 d   4.000
  | Found hydrogenic basis function :  4 f   8.400
  | Found hydrogenic basis function :  3 d   2.800
  | Found ionic basis function :  5 p , default cutoff radius.
  | Found hydrogenic basis function :  5 g  12.000
  | Found ionic basis function :  5 s , default cutoff radius.
  Species Mo                  : Missing cutoff potential type.
  Defaulting to exp(1/x)/(1-x)^2 type cutoff potential.
  Species Mo: No 'logarithmic' tag. Using default grid for free atom:
  | Default logarithmic grid data [bohr] : 0.1000E-03 0.1000E+03 0.1012E+01
  | Will include ionic basis functions of  2.0-fold positive Mo                   ion.
  Species Mo: On-site basis accuracy parameter (for Gram-Schmidt orthonormalisation) not specified.
  Using default value basis_acc =  0.1000000E-03.
  Species Mo                  : Using default innermost maximum threshold i_radial=  2 for radial functions.
  Species Mo                  : Default cutoff onset for free atom density etc. : 0.40000000E+01 AA.
  Species Mo                  : Basic radial grid will be enhanced according to radial_multiplier =   2, to contain   119 grid points.
 
  Reading configuration options for species W                   .
  | Found nuclear charge :  74.0000
  | Found atomic mass :    183.840000000000      amu
  | Found l_max for Hartree potential  :   6
  | Found cutoff potl. onset [A], width [A], scale factor :    4.00000    2.00000    1.00000
  | Threshold for basis-dependent cutoff potential is   0.100000E-03
  | Found data for basic radial integration grid :    71 points, outermost radius =    7.000 A
  | Found multiplier for basic radial grid :   2
  | Found angular grid specification: user-specified.
  | Specified grid contains     6 separate shells.
  | Check grid settings after all constraints further below.
  | Found free-atom valence shell :  6 s   2.000
  | Found free-atom valence shell :  5 p   6.000
  | Found free-atom valence shell :  5 d   4.000
  | Found free-atom valence shell :  4 f  14.000
  | Found free-ion valence shell :  6 s   1.000
  | Found free-ion valence shell :  5 p   6.000
  | Found free-ion valence shell :  5 d   3.000
  | Found free-ion valence shell :  4 f  14.000
  | Found hydrogenic basis function :  4 f   7.800
  | Found hydrogenic basis function :  4 d   5.800
  | Found ionic basis function :  6 p , default cutoff radius.
  | Found hydrogenic basis function :  5 g  12.400
  | Found ionic basis function :  6 s , default cutoff radius.
  Species W                   : Missing cutoff potential type.
  Defaulting to exp(1/x)/(1-x)^2 type cutoff potential.
  Species W : No 'logarithmic' tag. Using default grid for free atom:
  | Default logarithmic grid data [bohr] : 0.1000E-03 0.1000E+03 0.1012E+01
  | Will include ionic basis functions of  2.0-fold positive W                    ion.
  Species W : On-site basis accuracy parameter (for Gram-Schmidt orthonormalisation) not specified.
  Using default value basis_acc =  0.1000000E-03.
  Species W                   : Using default innermost maximum threshold i_radial=  2 for radial functions.
  Species W                   : Default cutoff onset for free atom density etc. : 0.40000000E+01 AA.
  Species W                   : Basic radial grid will be enhanced according to radial_multiplier =   2, to contain   143 grid points.
 
  Reading configuration options for species Se                  .
  | Found nuclear charge :  34.0000
  | Found atomic mass :    78.9600000000000      amu
  | Found l_max for Hartree potential  :   6
  | Found cutoff potl. onset [A], width [A], scale factor :    4.00000    2.00000    1.00000
  | Threshold for basis-dependent cutoff potential is   0.100000E-03
  | Found data for basic radial integration grid :    55 points, outermost radius =    7.000 A
  | Found multiplier for basic radial grid :   2
  | Found angular grid specification: user-specified.
  | Specified grid contains     5 separate shells.
  | Check grid settings after all constraints further below.
  | Found free-atom valence shell :  4 s   2.000
  | Found free-atom valence shell :  4 p   4.000
  | Found free-atom valence shell :  3 d  10.000
  | Found free-ion valence shell :  4 s   1.000
  | Found free-ion valence shell :  4 p   3.000
  | Found free-ion valence shell :  3 d  10.000
  | Found hydrogenic basis function :  3 d   4.300
  | Found hydrogenic basis function :  2 p   1.600
  | Found hydrogenic basis function :  4 f   7.200
  | Found ionic basis function :  4 s , default cutoff radius.
  Species Se                  : Missing cutoff potential type.
  Defaulting to exp(1/x)/(1-x)^2 type cutoff potential.
  Species Se: No 'logarithmic' tag. Using default grid for free atom:
  | Default logarithmic grid data [bohr] : 0.1000E-03 0.1000E+03 0.1012E+01
  | Will include ionic basis functions of  2.0-fold positive Se                   ion.
  Species Se: On-site basis accuracy parameter (for Gram-Schmidt orthonormalisation) not specified.
  Using default value basis_acc =  0.1000000E-03.
  Species Se                  : Using default innermost maximum threshold i_radial=  2 for radial functions.
  Species Se                  : Default cutoff onset for free atom density etc. : 0.40000000E+01 AA.
  Species Se                  : Basic radial grid will be enhanced according to radial_multiplier =   2, to contain   111 grid points.
 
  Finished reading input file 'control.in'.
 
------------------------------------------------------------


------------------------------------------------------------
          Reading geometry description geometry.in.
------------------------------------------------------------
  Vacuum level in z-axis :   0.535434E+02
  | The smallest distance between any two atoms is         2.26352538 AA.
  | The first atom of this pair is atom number                     35 .
  | The second atom of this pair is atom number                    36 .
  | Wigner-Seitz cell of the first atom image           0     0     0 .
  | (The Wigner-Seitz cell of the second atom is 0 0 0  by definition.)

  Symmetry information by spglib:
  | Precision set to  0.1E-04
  | Number of Operations  : 1
  | Space group           : 1
  | International         : P1
  | Schoenflies           : C1^1
  Input structure read successfully.
  The structure contains       76 atoms,  and a total of       3584.000 electrons.

  Input geometry:
  | Unit cell:
  |       16.44347560        0.00000000        0.00000000
  |       -8.22357185       14.23911350        0.00000000
  |        0.00000000        0.00000000       99.63748923
  | Atomic structure:
  |       Atom                x [A]            y [A]            z [A]
  |    1: Species W             0.02812858        0.99629699        2.65560966
  |    2: Species Se            1.67450497        1.94669647        4.34041608
  |    3: Species Se            1.67426866        1.94661273        0.97038628
  |    4: Species W            -1.61540328        3.84341226        2.65736746
  |    5: Species Se            0.02782192        4.79262006        4.34681348
  |    6: Species Se            0.02536676        4.79563217        0.96860344
  |    7: Species W            -3.25751804        6.69120112        2.65952930
  |    8: Species Se           -1.61586282        7.64167749        4.34986356
  |    9: Species Se           -1.61577400        7.64333497        0.97137335
  |   10: Species W            -4.90484344        9.54336915        2.65961730
  |   11: Species Se           -3.26069368       10.48977707        4.34986588
  |   12: Species Se           -3.25929862       10.48891352        0.97138211
  |   13: Species W            -6.55074392       12.38894224        2.65749623
  |   14: Species Se           -4.90693212       13.33729311        4.34682093
  |   15: Species Se           -4.90572853       13.33356517        0.96857703
  |   16: Species W             3.32369860        0.99302775        2.65471467
  |   17: Species Se            4.95858998        1.94522166        4.35089443
  |   18: Species Se            4.95895260        1.93068971        0.95079128
  |   19: Species W             1.67279391        3.85168468        2.65478186
  |   20: Species Se            3.31498589        4.79112393        4.35102482
  |   21: Species Se            3.30251195        4.79897401        0.95093402
  |   22: Species W             0.02609444        6.69117860        2.65963616
  |   23: Species Se            1.67784333        7.63897177        4.34274501
  |   24: Species Se            1.67252140        7.64207716        0.97488799
  |   25: Species W            -1.61613663        9.54044100        2.66126537
  |   26: Species Se            0.02827638       10.48982087        4.34988261
  |   27: Species Se            0.02690934       10.48886972        0.97135059
  |   28: Species W            -3.26338265       12.38678350        2.65955820
  |   29: Species Se           -1.61652225       13.34330434        4.34254986
  |   30: Species Se           -1.61658460       13.33693813        0.97468060
  |   31: Species W             6.60672718        1.00737117        2.65463974
  |   32: Species Se            8.25487054        1.94523685        4.35069528
  |   33: Species Se            8.25430419        1.93055996        0.95057340
  |   34: Species W             4.91279475        3.81630576        2.64198046
  |   35: Species Se            6.60656817        4.79370690        4.23706260
  |   36: Species Se            6.60798001        4.79211945        6.50058698
  |   37: Species Se            6.60626625        4.79403722        1.00306237
  |   38: Species W             3.32635828        6.68738982        2.65495551
  |   39: Species Se            4.96271472        7.64551002        4.35110461
  |   40: Species Se            4.94978993        7.65244649        0.95105500
  |   41: Species W             1.67255500        9.54337041        2.65966033
  |   42: Species Se            3.31751452       10.49130074        4.34689137
  |   43: Species Se            3.31374631       10.49189073        0.96864215
  |   44: Species W             0.03035720       12.38676718        2.65949178
  |   45: Species Se            1.67383723       13.33734537        4.34667808
  |   46: Species Se            1.67260803       13.33345660        0.96842430
  |   47: Species W             9.88976165        0.99300889        2.65446409
  |   48: Species Se           11.53878526        1.94671462        4.34016193
  |   49: Species Se           11.53911566        1.94655198        0.97015573
  |   50: Species W             8.30005827        3.81626505        2.64166497
  |   51: Species Se            9.89770266        4.79108740        4.35075281
  |   52: Species Se            9.91016906        4.79901532        0.95063100
  |   53: Species W             6.60601186        6.74937153        2.64209984
  |   54: Species Se            8.24925528        7.64547809        4.35104515
  |   55: Species Se            8.26201403        7.65247911        0.95095876
  |   56: Species W             4.95504120        9.53744043        2.65488735
  |   57: Species Se            6.60557516       10.48866647        4.34053776
  |   58: Species Se            6.60555323       10.48886028        0.97048606
  |   59: Species W             3.31776529       12.38893559        2.65740676
  |   60: Species Se            4.96173372       13.33810110        4.34521387
  |   61: Species Se            4.96068848       13.33730336        0.96726262
  |   62: Species W            13.18533666        0.99625753        2.65547849
  |   63: Species Se           14.82835961        1.94515787        4.34518458
  |   64: Species Se           14.82847479        1.94645455        0.96721560
  |   65: Species W            11.53997909        3.85168978        2.65449666
  |   66: Species Se           13.18467438        4.79262140        4.34667353
  |   67: Species Se           13.18736796        4.79566646        0.96845885
  |   68: Species W             9.88565044        6.68737919        2.65475063
  |   69: Species Se           11.53397079        7.63891151        4.34261064
  |   70: Species Se           11.53937231        7.64213729        0.97476663
  |   71: Species W             8.25621450        9.53743998        2.65485231
  |   72: Species Se            9.89360935       10.49126333        4.34687541
  |   73: Species Se            9.89737632       10.49198521        0.96867076
  |   74: Species W             6.60524013       12.38962182        2.65567388
  |   75: Species Se            8.24858693       13.33805438        4.34533097
  |   76: Species Se            8.24971948       13.33733790        0.96730881

  Lattice parameters for 3D lattice (in Angstroms) :    16.443476   16.443220   99.637489
  Angle(s) between unit vectors (in degrees)       :    90.000000   90.000000  120.007894


  Quantities derived from the lattice vectors:
  | Reciprocal lattice vector 1:  0.382108  0.220680  0.000000
  | Reciprocal lattice vector 2: -0.000000  0.441262  0.000000
  | Reciprocal lattice vector 3:  0.000000  0.000000  0.063060
  | Unit cell volume                               :   0.233292E+05  A^3

  Fractional coordinates:
                         L1                L2                L3
       atom_frac         0.03670294        0.06996903        0.02665272  W
       atom_frac         0.17020662        0.13671472        0.04356208  Se
       atom_frac         0.17018930        0.13670884        0.00973917  Se
       atom_frac         0.03675001        0.26991935        0.02667036  W
       atom_frac         0.17002019        0.33658135        0.04362628  Se
       atom_frac         0.16997667        0.33679289        0.00972128  Se
       atom_frac         0.03690691        0.46991697        0.02669205  W
       atom_frac         0.17012617        0.53666807        0.04365690  Se
       atom_frac         0.17018979        0.53678447        0.00974907  Se
       atom_frac         0.03690075        0.67022214        0.02669294  W
       atom_frac         0.17012881        0.73668751        0.04365692  Se
       atom_frac         0.17018332        0.73662686        0.00974916  Se
       atom_frac         0.03674960        0.87006415        0.02667165  W
       atom_frac         0.17002536        0.93666597        0.04362636  Se
       atom_frac         0.16996762        0.93640416        0.00972101  Se
       atom_frac         0.23700621        0.06973944        0.02664373  W
       atom_frac         0.36987446        0.13661115        0.04366724  Se
       atom_frac         0.36938611        0.13559058        0.00954251  Se
       atom_frac         0.23701028        0.27050031        0.02664441  W
       atom_frac         0.36987453        0.33647628        0.04366855  Se
       atom_frac         0.36939164        0.33702758        0.00954394  Se
       atom_frac         0.23659703        0.46991539        0.02669313  W
       atom_frac         0.37033588        0.53647804        0.04358545  Se
       atom_frac         0.37012130        0.53669613        0.00978435  Se
       atom_frac         0.23679861        0.67001650        0.02670948  W
       atom_frac         0.37014707        0.73669059        0.04365709  Se
       atom_frac         0.37003053        0.73662379        0.00974885  Se
       atom_frac         0.23659266        0.86991255        0.02669234  W
       atom_frac         0.37034077        0.93708814        0.04358349  Se
       atom_frac         0.37011338        0.93664104        0.00978227  Se
       atom_frac         0.43716538        0.07074676        0.02664298  W
       atom_frac         0.57033629        0.13661222        0.04366524  Se
       atom_frac         0.56978636        0.13558147        0.00954032  Se
       atom_frac         0.43280637        0.26801569        0.02651593  W
       atom_frac         0.57014083        0.33665768        0.04252478  Se
       atom_frac         0.57017093        0.33654619        0.06524238  Se
       atom_frac         0.57013407        0.33668088        0.01006712  Se
       atom_frac         0.43716750        0.46964931        0.02664615  W
       atom_frac         0.57033299        0.53693722        0.04366935  Se
       atom_frac         0.56979060        0.53742436        0.00954515  Se
       atom_frac         0.43690129        0.67022223        0.02669337  W
       atom_frac         0.57023207        0.73679452        0.04362707  Se
       atom_frac         0.57002363        0.73683595        0.00972166  Se
       atom_frac         0.43689888        0.86991140        0.02669168  W
       atom_frac         0.57023269        0.93666964        0.04362493  Se
       atom_frac         0.57002136        0.93639654        0.00971948  Se
       atom_frac         0.63631669        0.06973811        0.02664122  W
       atom_frac         0.77009748        0.13671600        0.04355953  Se
       atom_frac         0.77011186        0.13670458        0.00973685  Se
       atom_frac         0.63879932        0.26801283        0.02651276  W
       atom_frac         0.77019717        0.33647371        0.04366582  Se
       atom_frac         0.77123376        0.33703048        0.00954090  Se
       atom_frac         0.63879459        0.47400223        0.02651713  W
       atom_frac         0.77020084        0.53693498        0.04366876  Se
       atom_frac         0.77122264        0.53742665        0.00954419  Se
       atom_frac         0.63631542        0.66980577        0.02664547  W
       atom_frac         0.77010096        0.73660951        0.04356330  Se
       atom_frac         0.77010644        0.73662312        0.00974017  Se
       atom_frac         0.63689677        0.87006369        0.02667075  W
       atom_frac         0.77021067        0.93672272        0.04361023  Se
       atom_frac         0.77011908        0.93666669        0.00970782  Se
       atom_frac         0.83684919        0.06996626        0.02665140  W
       atom_frac         0.97009627        0.13660667        0.04360994  Se
       atom_frac         0.97014882        0.13669773        0.00970735  Se
       atom_frac         0.83707734        0.27050067        0.02664155  W
       atom_frac         0.97014624        0.33658145        0.04362488  Se
       atom_frac         0.97041700        0.33679530        0.00971982  Se
       atom_frac         0.83606650        0.46964856        0.02664409  W
       atom_frac         0.96972818        0.53647381        0.04358410  Se
       atom_frac         0.97016997        0.53670036        0.00978313  Se
       atom_frac         0.83707426        0.66980574        0.02664511  W
       atom_frac         0.97015198        0.73679189        0.04362691  Se
       atom_frac         0.97040642        0.73684259        0.00972195  Se
       atom_frac         0.83684666        0.87011188        0.02665336  W
       atom_frac         0.97009701        0.93671944        0.04361141  Se
       atom_frac         0.97014072        0.93666912        0.00970828  Se

  Initial moments and charges:
  |  Atom   Moment         Charge        Species
  |     1   0.100000E+01   0.000000E+00   W
  |     2   0.100000E+01   0.000000E+00   Se
  |     3   0.100000E+01   0.000000E+00   Se
  |     4   0.100000E+01   0.000000E+00   W
  |     5   0.100000E+01   0.000000E+00   Se
  |     6   0.100000E+01   0.000000E+00   Se
  |     7   0.100000E+01   0.000000E+00   W
  |     8   0.100000E+01   0.000000E+00   Se
  |     9   0.100000E+01   0.000000E+00   Se
  |    10   0.100000E+01   0.000000E+00   W
  |    11   0.100000E+01   0.000000E+00   Se
  |    12   0.100000E+01   0.000000E+00   Se
  |    13   0.100000E+01   0.000000E+00   W
  |    14   0.100000E+01   0.000000E+00   Se
  |    15   0.100000E+01   0.000000E+00   Se
  |    16   0.100000E+01   0.000000E+00   W
  |    17   0.100000E+01   0.000000E+00   Se
  |    18   0.100000E+01   0.000000E+00   Se
  |    19   0.100000E+01   0.000000E+00   W
  |    20   0.100000E+01   0.000000E+00   Se
  |    21   0.100000E+01   0.000000E+00   Se
  |    22   0.100000E+01   0.000000E+00   W
  |    23   0.100000E+01   0.000000E+00   Se
  |    24   0.100000E+01   0.000000E+00   Se
  |    25   0.100000E+01   0.000000E+00   W
  |    26   0.100000E+01   0.000000E+00   Se
  |    27   0.100000E+01   0.000000E+00   Se
  |    28   0.100000E+01   0.000000E+00   W
  |    29   0.100000E+01   0.000000E+00   Se
  |    30   0.100000E+01   0.000000E+00   Se
  |    31   0.100000E+01   0.000000E+00   W
  |    32   0.100000E+01   0.000000E+00   Se
  |    33   0.100000E+01   0.000000E+00   Se
  |    34   0.100000E+01   0.000000E+00   W
  |    35   0.100000E+01   0.000000E+00   Se
  |    36   0.100000E+01   0.000000E+00   Se
  |    37   0.100000E+01   0.000000E+00   Se
  |    38   0.100000E+01   0.000000E+00   W
  |    39   0.100000E+01   0.000000E+00   Se
  |    40   0.100000E+01   0.000000E+00   Se
  |    41   0.100000E+01   0.000000E+00   W
  |    42   0.100000E+01   0.000000E+00   Se
  |    43   0.100000E+01   0.000000E+00   Se
  |    44   0.100000E+01   0.000000E+00   W
  |    45   0.100000E+01   0.000000E+00   Se
  |    46   0.100000E+01   0.000000E+00   Se
  |    47   0.100000E+01   0.000000E+00   W
  |    48   0.100000E+01   0.000000E+00   Se
  |    49   0.100000E+01   0.000000E+00   Se
  |    50   0.100000E+01   0.000000E+00   W
  |    51   0.100000E+01   0.000000E+00   Se
  |    52   0.100000E+01   0.000000E+00   Se
  |    53   0.100000E+01   0.000000E+00   W
  |    54   0.100000E+01   0.000000E+00   Se
  |    55   0.100000E+01   0.000000E+00   Se
  |    56   0.100000E+01   0.000000E+00   W
  |    57   0.100000E+01   0.000000E+00   Se
  |    58   0.100000E+01   0.000000E+00   Se
  |    59   0.100000E+01   0.000000E+00   W
  |    60   0.100000E+01   0.000000E+00   Se
  |    61   0.100000E+01   0.000000E+00   Se
  |    62   0.100000E+01   0.000000E+00   W
  |    63   0.100000E+01   0.000000E+00   Se
  |    64   0.100000E+01   0.000000E+00   Se
  |    65   0.100000E+01   0.000000E+00   W
  |    66   0.100000E+01   0.000000E+00   Se
  |    67   0.100000E+01   0.000000E+00   Se
  |    68   0.100000E+01   0.000000E+00   W
  |    69   0.100000E+01   0.000000E+00   Se
  |    70   0.100000E+01   0.000000E+00   Se
  |    71   0.100000E+01   0.000000E+00   W
  |    72   0.100000E+01   0.000000E+00   Se
  |    73   0.100000E+01   0.000000E+00   Se
  |    74   0.100000E+01   0.000000E+00   W
  |    75   0.100000E+01   0.000000E+00   Se
  |    76   0.100000E+01   0.000000E+00   Se

 
  Finished reading input file 'control.in'.
 

------------------------------------------------------------
          Reading geometry description geometry.in.
------------------------------------------------------------
 
  Consistency checks for stacksize environment parameter are next.
 
  | Maximum stacksize for task 0: unlimited
  | Maximum stacksize for task 1: unlimited
  | Maximum stacksize for task 2: unlimited
  | Maximum stacksize for task 3: unlimited
  | Maximum stacksize for task 4: unlimited
  | Maximum stacksize for task 5: unlimited
  | Maximum stacksize for task 6: unlimited
  | Maximum stacksize for task 7: unlimited
  | Maximum stacksize for task 8: unlimited
  | Maximum stacksize for task 9: unlimited
  | Maximum stacksize for task 10: unlimited
  | Maximum stacksize for task 11: unlimited
  | Maximum stacksize for task 12: unlimited
  | Maximum stacksize for task 13: unlimited
  | Maximum stacksize for task 14: unlimited
  | Maximum stacksize for task 15: unlimited
  | Maximum stacksize for task 16: unlimited
  | Maximum stacksize for task 17: unlimited
  | Maximum stacksize for task 18: unlimited
  | Maximum stacksize for task 19: unlimited
  | Maximum stacksize for task 20: unlimited
  | Maximum stacksize for task 21: unlimited
  | Maximum stacksize for task 22: unlimited
  | Maximum stacksize for task 23: unlimited
  | Maximum stacksize for task 24: unlimited
  | Maximum stacksize for task 25: unlimited
  | Maximum stacksize for task 26: unlimited
  | Maximum stacksize for task 27: unlimited
  | Maximum stacksize for task 28: unlimited
  | Maximum stacksize for task 29: unlimited
  | Maximum stacksize for task 30: unlimited
  | Maximum stacksize for task 31: unlimited
  | Maximum stacksize for task 32: unlimited
  | Maximum stacksize for task 33: unlimited
  | Maximum stacksize for task 34: unlimited
  | Maximum stacksize for task 35: unlimited
  | Maximum stacksize for task 36: unlimited
  | Maximum stacksize for task 37: unlimited
  | Maximum stacksize for task 38: unlimited
  | Maximum stacksize for task 39: unlimited
  | Maximum stacksize for task 40: unlimited
  | Maximum stacksize for task 41: unlimited
  | Maximum stacksize for task 42: unlimited
  | Maximum stacksize for task 43: unlimited
  | Maximum stacksize for task 44: unlimited
  | Maximum stacksize for task 45: unlimited
  | Maximum stacksize for task 46: unlimited
  | Maximum stacksize for task 47: unlimited
  | Maximum stacksize for task 48: unlimited
  | Maximum stacksize for task 49: unlimited
  | Maximum stacksize for task 50: unlimited
  | Maximum stacksize for task 51: unlimited
  | Maximum stacksize for task 52: unlimited
  | Maximum stacksize for task 53: unlimited
  | Maximum stacksize for task 54: unlimited
  | Maximum stacksize for task 55: unlimited
  | Maximum stacksize for task 56: unlimited
  | Maximum stacksize for task 57: unlimited
  | Maximum stacksize for task 58: unlimited
  | Maximum stacksize for task 59: unlimited
  | Maximum stacksize for task 60: unlimited
  | Maximum stacksize for task 61: unlimited
  | Maximum stacksize for task 62: unlimited
  | Maximum stacksize for task 63: unlimited
  | Maximum stacksize for task 64: unlimited
  | Maximum stacksize for task 65: unlimited
  | Maximum stacksize for task 66: unlimited
  | Maximum stacksize for task 67: unlimited
  | Maximum stacksize for task 68: unlimited
  | Maximum stacksize for task 69: unlimited
  | Maximum stacksize for task 70: unlimited
  | Maximum stacksize for task 71: unlimited
  | Maximum stacksize for task 72: unlimited
  | Maximum stacksize for task 73: unlimited
  | Maximum stacksize for task 74: unlimited
  | Maximum stacksize for task 75: unlimited
  | Maximum stacksize for task 76: unlimited
  | Maximum stacksize for task 77: unlimited
  | Maximum stacksize for task 78: unlimited
  | Maximum stacksize for task 79: unlimited
  | Maximum stacksize for task 80: unlimited
  | Maximum stacksize for task 81: unlimited
  | Maximum stacksize for task 82: unlimited
  | Maximum stacksize for task 83: unlimited
  | Maximum stacksize for task 84: unlimited
  | Maximum stacksize for task 85: unlimited
  | Maximum stacksize for task 86: unlimited
  | Maximum stacksize for task 87: unlimited
  | Maximum stacksize for task 88: unlimited
  | Maximum stacksize for task 89: unlimited
  | Maximum stacksize for task 90: unlimited
  | Maximum stacksize for task 91: unlimited
  | Maximum stacksize for task 92: unlimited
  | Maximum stacksize for task 93: unlimited
  | Maximum stacksize for task 94: unlimited
  | Maximum stacksize for task 95: unlimited
  | Maximum stacksize for task 96: unlimited
  | Maximum stacksize for task 97: unlimited
  | Maximum stacksize for task 98: unlimited
  | Maximum stacksize for task 99: unlimited
  | Maximum stacksize for task 100: unlimited
  | Maximum stacksize for task 101: unlimited
  | Maximum stacksize for task 102: unlimited
  | Maximum stacksize for task 103: unlimited
  | Maximum stacksize for task 104: unlimited
  | Maximum stacksize for task 105: unlimited
  | Maximum stacksize for task 106: unlimited
  | Maximum stacksize for task 107: unlimited
  | Maximum stacksize for task 108: unlimited
  | Maximum stacksize for task 109: unlimited
  | Maximum stacksize for task 110: unlimited
  | Maximum stacksize for task 111: unlimited
  | Maximum stacksize for task 112: unlimited
  | Maximum stacksize for task 113: unlimited
  | Maximum stacksize for task 114: unlimited
  | Maximum stacksize for task 115: unlimited
  | Maximum stacksize for task 116: unlimited
  | Maximum stacksize for task 117: unlimited
  | Maximum stacksize for task 118: unlimited
  | Maximum stacksize for task 119: unlimited
  | Maximum stacksize for task 120: unlimited
  | Maximum stacksize for task 121: unlimited
  | Maximum stacksize for task 122: unlimited
  | Maximum stacksize for task 123: unlimited
  | Maximum stacksize for task 124: unlimited
  | Maximum stacksize for task 125: unlimited
  | Maximum stacksize for task 126: unlimited
  | Maximum stacksize for task 127: unlimited
  | Maximum stacksize for task 128: unlimited
  | Maximum stacksize for task 129: unlimited
  | Maximum stacksize for task 130: unlimited
  | Maximum stacksize for task 131: unlimited
  | Maximum stacksize for task 132: unlimited
  | Maximum stacksize for task 133: unlimited
  | Maximum stacksize for task 134: unlimited
  | Maximum stacksize for task 135: unlimited
  | Maximum stacksize for task 136: unlimited
  | Maximum stacksize for task 137: unlimited
  | Maximum stacksize for task 138: unlimited
  | Maximum stacksize for task 139: unlimited
  | Maximum stacksize for task 140: unlimited
  | Maximum stacksize for task 141: unlimited
  | Maximum stacksize for task 142: unlimited
  | Maximum stacksize for task 143: unlimited
  | Maximum stacksize for task 144: unlimited
  | Maximum stacksize for task 145: unlimited
  | Maximum stacksize for task 146: unlimited
  | Maximum stacksize for task 147: unlimited
  | Maximum stacksize for task 148: unlimited
  | Maximum stacksize for task 149: unlimited
  | Maximum stacksize for task 150: unlimited
  | Maximum stacksize for task 151: unlimited
  | Maximum stacksize for task 152: unlimited
  | Maximum stacksize for task 153: unlimited
  | Maximum stacksize for task 154: unlimited
  | Maximum stacksize for task 155: unlimited
  | Maximum stacksize for task 156: unlimited
  | Maximum stacksize for task 157: unlimited
  | Maximum stacksize for task 158: unlimited
  | Maximum stacksize for task 159: unlimited
  | Maximum stacksize for task 160: unlimited
  | Maximum stacksize for task 161: unlimited
  | Maximum stacksize for task 162: unlimited
  | Maximum stacksize for task 163: unlimited
  | Maximum stacksize for task 164: unlimited
  | Maximum stacksize for task 165: unlimited
  | Maximum stacksize for task 166: unlimited
  | Maximum stacksize for task 167: unlimited
  | Maximum stacksize for task 168: unlimited
  | Maximum stacksize for task 169: unlimited
  | Maximum stacksize for task 170: unlimited
  | Maximum stacksize for task 171: unlimited
  | Maximum stacksize for task 172: unlimited
  | Maximum stacksize for task 173: unlimited
  | Maximum stacksize for task 174: unlimited
  | Maximum stacksize for task 175: unlimited
  | Maximum stacksize for task 176: unlimited
  | Maximum stacksize for task 177: unlimited
  | Maximum stacksize for task 178: unlimited
  | Maximum stacksize for task 179: unlimited
  | Maximum stacksize for task 180: unlimited
  | Maximum stacksize for task 181: unlimited
  | Maximum stacksize for task 182: unlimited
  | Maximum stacksize for task 183: unlimited
  | Maximum stacksize for task 184: unlimited
  | Maximum stacksize for task 185: unlimited
  | Maximum stacksize for task 186: unlimited
  | Maximum stacksize for task 187: unlimited
  | Maximum stacksize for task 188: unlimited
  | Maximum stacksize for task 189: unlimited
  | Maximum stacksize for task 190: unlimited
  | Maximum stacksize for task 191: unlimited
  | Maximum stacksize for task 192: unlimited
  | Maximum stacksize for task 193: unlimited
  | Maximum stacksize for task 194: unlimited
  | Maximum stacksize for task 195: unlimited
  | Maximum stacksize for task 196: unlimited
  | Maximum stacksize for task 197: unlimited
  | Maximum stacksize for task 198: unlimited
  | Maximum stacksize for task 199: unlimited
  | Maximum stacksize for task 200: unlimited
  | Maximum stacksize for task 201: unlimited
  | Maximum stacksize for task 202: unlimited
  | Maximum stacksize for task 203: unlimited
  | Maximum stacksize for task 204: unlimited
  | Maximum stacksize for task 205: unlimited
  | Maximum stacksize for task 206: unlimited
  | Maximum stacksize for task 207: unlimited
  | Maximum stacksize for task 208: unlimited
  | Maximum stacksize for task 209: unlimited
  | Maximum stacksize for task 210: unlimited
  | Maximum stacksize for task 211: unlimited
  | Maximum stacksize for task 212: unlimited
  | Maximum stacksize for task 213: unlimited
  | Maximum stacksize for task 214: unlimited
  | Maximum stacksize for task 215: unlimited
  | Current stacksize for task 0: unlimited
  | Current stacksize for task 1: unlimited
  | Current stacksize for task 2: unlimited
  | Current stacksize for task 3: unlimited
  | Current stacksize for task 4: unlimited
  | Current stacksize for task 5: unlimited
  | Current stacksize for task 6: unlimited
  | Current stacksize for task 7: unlimited
  | Current stacksize for task 8: unlimited
  | Current stacksize for task 9: unlimited
  | Current stacksize for task 10: unlimited
  | Current stacksize for task 11: unlimited
  | Current stacksize for task 12: unlimited
  | Current stacksize for task 13: unlimited
  | Current stacksize for task 14: unlimited
  | Current stacksize for task 15: unlimited
  | Current stacksize for task 16: unlimited
  | Current stacksize for task 17: unlimited
  | Current stacksize for task 18: unlimited
  | Current stacksize for task 19: unlimited
  | Current stacksize for task 20: unlimited
  | Current stacksize for task 21: unlimited
  | Current stacksize for task 22: unlimited
  | Current stacksize for task 23: unlimited
  | Current stacksize for task 24: unlimited
  | Current stacksize for task 25: unlimited
  | Current stacksize for task 26: unlimited
  | Current stacksize for task 27: unlimited
  | Current stacksize for task 28: unlimited
  | Current stacksize for task 29: unlimited
  | Current stacksize for task 30: unlimited
  | Current stacksize for task 31: unlimited
  | Current stacksize for task 32: unlimited
  | Current stacksize for task 33: unlimited
  | Current stacksize for task 34: unlimited
  | Current stacksize for task 35: unlimited
  | Current stacksize for task 36: unlimited
  | Current stacksize for task 37: unlimited
  | Current stacksize for task 38: unlimited
  | Current stacksize for task 39: unlimited
  | Current stacksize for task 40: unlimited
  | Current stacksize for task 41: unlimited
  | Current stacksize for task 42: unlimited
  | Current stacksize for task 43: unlimited
  | Current stacksize for task 44: unlimited
  | Current stacksize for task 45: unlimited
  | Current stacksize for task 46: unlimited
  | Current stacksize for task 47: unlimited
  | Current stacksize for task 48: unlimited
  | Current stacksize for task 49: unlimited
  | Current stacksize for task 50: unlimited
  | Current stacksize for task 51: unlimited
  | Current stacksize for task 52: unlimited
  | Current stacksize for task 53: unlimited
  | Current stacksize for task 54: unlimited
  | Current stacksize for task 55: unlimited
  | Current stacksize for task 56: unlimited
  | Current stacksize for task 57: unlimited
  | Current stacksize for task 58: unlimited
  | Current stacksize for task 59: unlimited
  | Current stacksize for task 60: unlimited
  | Current stacksize for task 61: unlimited
  | Current stacksize for task 62: unlimited
  | Current stacksize for task 63: unlimited
  | Current stacksize for task 64: unlimited
  | Current stacksize for task 65: unlimited
  | Current stacksize for task 66: unlimited
  | Current stacksize for task 67: unlimited
  | Current stacksize for task 68: unlimited
  | Current stacksize for task 69: unlimited
  | Current stacksize for task 70: unlimited
  | Current stacksize for task 71: unlimited
  | Current stacksize for task 72: unlimited
  | Current stacksize for task 73: unlimited
  | Current stacksize for task 74: unlimited
  | Current stacksize for task 75: unlimited
  | Current stacksize for task 76: unlimited
  | Current stacksize for task 77: unlimited
  | Current stacksize for task 78: unlimited
  | Current stacksize for task 79: unlimited
  | Current stacksize for task 80: unlimited
  | Current stacksize for task 81: unlimited
  | Current stacksize for task 82: unlimited
  | Current stacksize for task 83: unlimited
  | Current stacksize for task 84: unlimited
  | Current stacksize for task 85: unlimited
  | Current stacksize for task 86: unlimited
  | Current stacksize for task 87: unlimited
  | Current stacksize for task 88: unlimited
  | Current stacksize for task 89: unlimited
  | Current stacksize for task 90: unlimited
  | Current stacksize for task 91: unlimited
  | Current stacksize for task 92: unlimited
  | Current stacksize for task 93: unlimited
  | Current stacksize for task 94: unlimited
  | Current stacksize for task 95: unlimited
  | Current stacksize for task 96: unlimited
  | Current stacksize for task 97: unlimited
  | Current stacksize for task 98: unlimited
  | Current stacksize for task 99: unlimited
  | Current stacksize for task 100: unlimited
  | Current stacksize for task 101: unlimited
  | Current stacksize for task 102: unlimited
  | Current stacksize for task 103: unlimited
  | Current stacksize for task 104: unlimited
  | Current stacksize for task 105: unlimited
  | Current stacksize for task 106: unlimited
  | Current stacksize for task 107: unlimited
  | Current stacksize for task 108: unlimited
  | Current stacksize for task 109: unlimited
  | Current stacksize for task 110: unlimited
  | Current stacksize for task 111: unlimited
  | Current stacksize for task 112: unlimited
  | Current stacksize for task 113: unlimited
  | Current stacksize for task 114: unlimited
  | Current stacksize for task 115: unlimited
  | Current stacksize for task 116: unlimited
  | Current stacksize for task 117: unlimited
  | Current stacksize for task 118: unlimited
  | Current stacksize for task 119: unlimited
  | Current stacksize for task 120: unlimited
  | Current stacksize for task 121: unlimited
  | Current stacksize for task 122: unlimited
  | Current stacksize for task 123: unlimited
  | Current stacksize for task 124: unlimited
  | Current stacksize for task 125: unlimited
  | Current stacksize for task 126: unlimited
  | Current stacksize for task 127: unlimited
  | Current stacksize for task 128: unlimited
  | Current stacksize for task 129: unlimited
  | Current stacksize for task 130: unlimited
  | Current stacksize for task 131: unlimited
  | Current stacksize for task 132: unlimited
  | Current stacksize for task 133: unlimited
  | Current stacksize for task 134: unlimited
  | Current stacksize for task 135: unlimited
  | Current stacksize for task 136: unlimited
  | Current stacksize for task 137: unlimited
  | Current stacksize for task 138: unlimited
  | Current stacksize for task 139: unlimited
  | Current stacksize for task 140: unlimited
  | Current stacksize for task 141: unlimited
  | Current stacksize for task 142: unlimited
  | Current stacksize for task 143: unlimited
  | Current stacksize for task 144: unlimited
  | Current stacksize for task 145: unlimited
  | Current stacksize for task 146: unlimited
  | Current stacksize for task 147: unlimited
  | Current stacksize for task 148: unlimited
  | Current stacksize for task 149: unlimited
  | Current stacksize for task 150: unlimited
  | Current stacksize for task 151: unlimited
  | Current stacksize for task 152: unlimited
  | Current stacksize for task 153: unlimited
  | Current stacksize for task 154: unlimited
  | Current stacksize for task 155: unlimited
  | Current stacksize for task 156: unlimited
  | Current stacksize for task 157: unlimited
  | Current stacksize for task 158: unlimited
  | Current stacksize for task 159: unlimited
  | Current stacksize for task 160: unlimited
  | Current stacksize for task 161: unlimited
  | Current stacksize for task 162: unlimited
  | Current stacksize for task 163: unlimited
  | Current stacksize for task 164: unlimited
  | Current stacksize for task 165: unlimited
  | Current stacksize for task 166: unlimited
  | Current stacksize for task 167: unlimited
  | Current stacksize for task 168: unlimited
  | Current stacksize for task 169: unlimited
  | Current stacksize for task 170: unlimited
  | Current stacksize for task 171: unlimited
  | Current stacksize for task 172: unlimited
  | Current stacksize for task 173: unlimited
  | Current stacksize for task 174: unlimited
  | Current stacksize for task 175: unlimited
  | Current stacksize for task 176: unlimited
  | Current stacksize for task 177: unlimited
  | Current stacksize for task 178: unlimited
  | Current stacksize for task 179: unlimited
  | Current stacksize for task 180: unlimited
  | Current stacksize for task 181: unlimited
  | Current stacksize for task 182: unlimited
  | Current stacksize for task 183: unlimited
  | Current stacksize for task 184: unlimited
  | Current stacksize for task 185: unlimited
  | Current stacksize for task 186: unlimited
  | Current stacksize for task 187: unlimited
  | Current stacksize for task 188: unlimited
  | Current stacksize for task 189: unlimited
  | Current stacksize for task 190: unlimited
  | Current stacksize for task 191: unlimited
  | Current stacksize for task 192: unlimited
  | Current stacksize for task 193: unlimited
  | Current stacksize for task 194: unlimited
  | Current stacksize for task 195: unlimited
  | Current stacksize for task 196: unlimited
  | Current stacksize for task 197: unlimited
  | Current stacksize for task 198: unlimited
  | Current stacksize for task 199: unlimited
  | Current stacksize for task 200: unlimited
  | Current stacksize for task 201: unlimited
  | Current stacksize for task 202: unlimited
  | Current stacksize for task 203: unlimited
  | Current stacksize for task 204: unlimited
  | Current stacksize for task 205: unlimited
  | Current stacksize for task 206: unlimited
  | Current stacksize for task 207: unlimited
  | Current stacksize for task 208: unlimited
  | Current stacksize for task 209: unlimited
  | Current stacksize for task 210: unlimited
  | Current stacksize for task 211: unlimited
  | Current stacksize for task 212: unlimited
  | Current stacksize for task 213: unlimited
  | Current stacksize for task 214: unlimited
  | Current stacksize for task 215: unlimited
 
  Consistency checks for the contents of control.in are next.
 
  MPI_IN_PLACE appears to work with this MPI implementation.
  | Keeping use_mpi_in_place .true. (see manual).
  Target number of points in a grid batch is not set. Defaulting to  100
  Method for grid partitioning is not set. Defaulting to parallel hash+maxmin partitioning.
  Batch size limit is not set. Defaulting to    200
  By default, will store active basis functions for each batch.
  If in need of memory, prune_basis_once .false. can be used to disable this option.
  communication_type for Hartree potential was not specified.
  Defaulting to calc_hartree .
  Defaulting to Pulay charge density mixer.
  Pulay mixer: Number of relevant iterations not set.
  Defaulting to    8 iterations.
  Pulay mixer: Number of initial linear mixing iterations not set.
  Defaulting to    0 iterations.
  Work space size for distributed Hartree potential not set.
  Defaulting to   0.200000E+03 MB.
  Mixing parameter for charge density mixing has not been set.
  Using default: charge_mix_param =     0.0500.
  The mixing parameter will be adjusted in iteration number     2 of the first full s.c.f. cycle only.
  Mixing parameter for spin density mixing has not been set.
  Using charge_mix_param as default:     0.0500.
  Algorithm-dependent basis array size parameters:
  | n_max_pulay                         :        8
  Maximum number of self-consistency iterations not provided.
  Presetting  1000 iterations.
  Presetting      1001 iterations before the initial mixing cycle
  is restarted anyway using the sc_init_iter criterion / keyword.
  Presetting a factor      1.000 between actual scf density residual
  and density convergence criterion sc_accuracy_rho below which sc_init_iter
  takes no effect.
 * No s.c.f. convergence criteria (sc_accuracy_*) were provided in control.in.
 * The run will proceed with a reasonable default guess, but please check whether.
 * the s.c.f. cycles seem to take too much or too little time.
  No maximum number of relaxation steps, defaulting to     1000
[...]
  Spin-down energy levels:
  | Work function-spin ("upper" slab surface)   :     4.90384961 eV
  | Work function-spin ("lower" slab surface)   :     4.70282113 eV
  *** Warning: band gap may exist, check the suitability to define work function using chemical potential.
  | VBM-spin (reference: upper vacuum level)    :     5.26039836 eV
  | CBM-spin (reference: upper vacuum level)    :     3.82589034 eV
  Relaxation / MD: End force evaluation.       :  max(cpu_time)    wall_clock(cpu1)
  | Time for this force evaluation              :      492.814 s         492.934 s

------------------------------------------------------------
  Geometry optimization: Attempting to predict improved coordinates.

  Removing unitary transformations (pure translations, rotations) from forces on atoms.
  Atomic forces before filtering:
  | Net force on center of mass :   0.871124E-18  0.174225E-18 -0.871124E-19 eV/A
  Atomic forces after filtering:
  | Net force on center of mass :  -0.234114E-18  0.174225E-18 -0.871124E-19 eV/A
  Net remaining forces (excluding translations, rotations) in present geometry:
  || Forces on atoms   || =   0.882477E-03 eV/A.
  Maximum force component is  0.882477E-03 eV/A.
  Present geometry is converged.

------------------------------------------------------------
  Final atomic structure:
                         x [A]             y [A]             z [A]
  lattice_vector        16.44347560        0.00000000        0.00000000
  lattice_vector        -8.22357185       14.23911350        0.00000000
  lattice_vector         0.00000000        0.00000000       99.63748923

            atom         0.02812858        0.99629699        2.65560966  W
            atom         1.67450497        1.94669647        4.34041608  Se
            atom         1.67426866        1.94661273        0.97038628  Se
            atom        -1.61540328        3.84341226        2.65736746  W
            atom         0.02782192        4.79262006        4.34681348  Se
            atom         0.02536676        4.79563217        0.96860344  Se
            atom        -3.25751804        6.69120112        2.65952930  W
            atom        -1.61586282        7.64167749        4.34986356  Se
            atom        -1.61577400        7.64333497        0.97137335  Se
            atom        -4.90484344        9.54336915        2.65961730  W
            atom        -3.26069368       10.48977707        4.34986588  Se
            atom        -3.25929862       10.48891352        0.97138211  Se
            atom        -6.55074392       12.38894224        2.65749623  W
            atom        -4.90693212       13.33729311        4.34682093  Se
            atom        -4.90572853       13.33356517        0.96857703  Se
            atom         3.32369860        0.99302775        2.65471467  W
            atom         4.95858998        1.94522166        4.35089443  Se
            atom         4.95895260        1.93068971        0.95079128  Se
            atom         1.67279391        3.85168468        2.65478186  W
            atom         3.31498589        4.79112393        4.35102482  Se
            atom         3.30251195        4.79897401        0.95093402  Se
            atom         0.02609444        6.69117860        2.65963616  W
            atom         1.67784333        7.63897177        4.34274501  Se
            atom         1.67252140        7.64207716        0.97488799  Se
            atom        -1.61613663        9.54044100        2.66126537  W
            atom         0.02827638       10.48982087        4.34988261  Se
            atom         0.02690934       10.48886972        0.97135059  Se
            atom        -3.26338265       12.38678350        2.65955820  W
            atom        -1.61652225       13.34330434        4.34254986  Se
            atom        -1.61658460       13.33693813        0.97468060  Se
            atom         6.60672718        1.00737117        2.65463974  W
            atom         8.25487054        1.94523685        4.35069528  Se
            atom         8.25430419        1.93055996        0.95057340  Se
            atom         4.91279475        3.81630576        2.64198046  W
            atom         6.60656817        4.79370690        4.23706260  Se
            atom         6.60798001        4.79211945        6.50058698  Se
            atom         6.60626625        4.79403722        1.00306237  Se
            atom         3.32635828        6.68738982        2.65495551  W
            atom         4.96271472        7.64551002        4.35110461  Se
            atom         4.94978993        7.65244649        0.95105500  Se
            atom         1.67255500        9.54337041        2.65966033  W
            atom         3.31751452       10.49130074        4.34689137  Se
            atom         3.31374631       10.49189073        0.96864215  Se
            atom         0.03035720       12.38676718        2.65949178  W
            atom         1.67383723       13.33734537        4.34667808  Se
            atom         1.67260803       13.33345660        0.96842430  Se
            atom         9.88976165        0.99300889        2.65446409  W
            atom        11.53878526        1.94671462        4.34016193  Se
            atom        11.53911566        1.94655198        0.97015573  Se
            atom         8.30005827        3.81626505        2.64166497  W
            atom         9.89770266        4.79108740        4.35075281  Se
            atom         9.91016906        4.79901532        0.95063100  Se
            atom         6.60601186        6.74937153        2.64209984  W
            atom         8.24925528        7.64547809        4.35104515  Se
            atom         8.26201403        7.65247911        0.95095876  Se
            atom         4.95504120        9.53744043        2.65488735  W
            atom         6.60557516       10.48866647        4.34053776  Se
            atom         6.60555323       10.48886028        0.97048606  Se
            atom         3.31776529       12.38893559        2.65740676  W
            atom         4.96173372       13.33810110        4.34521387  Se
            atom         4.96068848       13.33730336        0.96726262  Se
            atom        13.18533666        0.99625753        2.65547849  W
            atom        14.82835961        1.94515787        4.34518458  Se
            atom        14.82847479        1.94645455        0.96721560  Se
            atom        11.53997909        3.85168978        2.65449666  W
            atom        13.18467438        4.79262140        4.34667353  Se
            atom        13.18736796        4.79566646        0.96845885  Se
            atom         9.88565044        6.68737919        2.65475063  W
            atom        11.53397079        7.63891151        4.34261064  Se
            atom        11.53937231        7.64213729        0.97476663  Se
            atom         8.25621450        9.53743998        2.65485231  W
            atom         9.89360935       10.49126333        4.34687541  Se
            atom         9.89737632       10.49198521        0.96867076  Se
            atom         6.60524013       12.38962182        2.65567388  W
            atom         8.24858693       13.33805438        4.34533097  Se
            atom         8.24971948       13.33733790        0.96730881  Se

  Fractional coordinates:
                         L1                L2                L3
       atom_frac         0.03670294        0.06996903        0.02665272  W
       atom_frac         0.17020662        0.13671472        0.04356208  Se
       atom_frac         0.17018930        0.13670884        0.00973917  Se
       atom_frac         0.03675001        0.26991935        0.02667036  W
       atom_frac         0.17002019        0.33658135        0.04362628  Se
       atom_frac         0.16997667        0.33679289        0.00972128  Se
       atom_frac         0.03690691        0.46991697        0.02669205  W
       atom_frac         0.17012617        0.53666807        0.04365690  Se
       atom_frac         0.17018979        0.53678447        0.00974907  Se
       atom_frac         0.03690075        0.67022214        0.02669294  W
       atom_frac         0.17012881        0.73668751        0.04365692  Se
       atom_frac         0.17018332        0.73662686        0.00974916  Se
       atom_frac         0.03674960        0.87006415        0.02667165  W
       atom_frac         0.17002536        0.93666597        0.04362636  Se
       atom_frac         0.16996762        0.93640416        0.00972101  Se
       atom_frac         0.23700621        0.06973944        0.02664373  W
       atom_frac         0.36987446        0.13661115        0.04366724  Se
       atom_frac         0.36938611        0.13559058        0.00954251  Se
       atom_frac         0.23701028        0.27050031        0.02664441  W
       atom_frac         0.36987453        0.33647628        0.04366855  Se
       atom_frac         0.36939164        0.33702758        0.00954394  Se
       atom_frac         0.23659703        0.46991539        0.02669313  W
       atom_frac         0.37033588        0.53647804        0.04358545  Se
       atom_frac         0.37012130        0.53669613        0.00978435  Se
       atom_frac         0.23679861        0.67001650        0.02670948  W
       atom_frac         0.37014707        0.73669059        0.04365709  Se
       atom_frac         0.37003053        0.73662379        0.00974885  Se
       atom_frac         0.23659266        0.86991255        0.02669234  W
       atom_frac         0.37034077        0.93708814        0.04358349  Se
       atom_frac         0.37011338        0.93664104        0.00978227  Se
       atom_frac         0.43716538        0.07074676        0.02664298  W
       atom_frac         0.57033629        0.13661222        0.04366524  Se
       atom_frac         0.56978636        0.13558147        0.00954032  Se
       atom_frac         0.43280637        0.26801569        0.02651593  W
       atom_frac         0.57014083        0.33665768        0.04252478  Se
       atom_frac         0.57017093        0.33654619        0.06524238  Se
       atom_frac         0.57013407        0.33668088        0.01006712  Se
       atom_frac         0.43716750        0.46964931        0.02664615  W
       atom_frac         0.57033299        0.53693722        0.04366935  Se
       atom_frac         0.56979060        0.53742436        0.00954515  Se
       atom_frac         0.43690129        0.67022223        0.02669337  W
       atom_frac         0.57023207        0.73679452        0.04362707  Se
       atom_frac         0.57002363        0.73683595        0.00972166  Se
       atom_frac         0.43689888        0.86991140        0.02669168  W
       atom_frac         0.57023269        0.93666964        0.04362493  Se
       atom_frac         0.57002136        0.93639654        0.00971948  Se
       atom_frac         0.63631669        0.06973811        0.02664122  W
       atom_frac         0.77009748        0.13671600        0.04355953  Se
       atom_frac         0.77011186        0.13670458        0.00973685  Se
       atom_frac         0.63879932        0.26801283        0.02651276  W
       atom_frac         0.77019717        0.33647371        0.04366582  Se
       atom_frac         0.77123376        0.33703048        0.00954090  Se
       atom_frac         0.63879459        0.47400223        0.02651713  W
       atom_frac         0.77020084        0.53693498        0.04366876  Se
       atom_frac         0.77122264        0.53742665        0.00954419  Se
       atom_frac         0.63631542        0.66980577        0.02664547  W
       atom_frac         0.77010096        0.73660951        0.04356330  Se
       atom_frac         0.77010644        0.73662312        0.00974017  Se
       atom_frac         0.63689677        0.87006369        0.02667075  W
       atom_frac         0.77021067        0.93672272        0.04361023  Se
       atom_frac         0.77011908        0.93666669        0.00970782  Se
       atom_frac         0.83684919        0.06996626        0.02665140  W
       atom_frac         0.97009627        0.13660667        0.04360994  Se
       atom_frac         0.97014882        0.13669773        0.00970735  Se
       atom_frac         0.83707734        0.27050067        0.02664155  W
       atom_frac         0.97014624        0.33658145        0.04362488  Se
       atom_frac         0.97041700        0.33679530        0.00971982  Se
       atom_frac         0.83606650        0.46964856        0.02664409  W
       atom_frac         0.96972818        0.53647381        0.04358410  Se
       atom_frac         0.97016997        0.53670036        0.00978313  Se
       atom_frac         0.83707426        0.66980574        0.02664511  W
       atom_frac         0.97015198        0.73679189        0.04362691  Se
       atom_frac         0.97040642        0.73684259        0.00972195  Se
       atom_frac         0.83684666        0.87011188        0.02665336  W
       atom_frac         0.97009701        0.93671944        0.04361141  Se
       atom_frac         0.97014072        0.93666912        0.00970828  Se
------------------------------------------------------------

------------------------------------------------------------------------------
  Final output of selected total energy values:

  The following output summarizes some interesting total energy values
  at the end of a run (AFTER all relaxation, molecular dynamics, etc.).

  | Total energy of the DFT / Hartree-Fock s.c.f. calculation      :      -14711404.151922733 eV
  | Final zero-broadening corrected energy (caution - metals only) :      -14711404.151922733 eV
  | For reference only, the value of 1 Hartree used in FHI-aims is :             27.211384500 eV
  | For reference only, the overall average (free atom contribution
  | + realspace contribution) of the electrostatic potential after
  | s.c.f. convergence is                                          :             -1.373475266 eV

  Before relying on these values, please be sure to understand exactly which
  total energy value is referred to by a given number. Different objects may
  all carry the same name 'total energy'. Definitions:

  Total energy of the DFT / Hartree-Fock s.c.f. calculation:
  | Note that this energy does not include ANY quantities calculated after the
  | s.c.f. cycle, in particular not ANY RPA, MP2, etc. many-body perturbation terms.

  Final zero-broadening corrected energy:
  | For metallic systems only, a broadening of the occupation numbers at the Fermi
  | level can be extrapolated back to zero broadening by an electron-gas inspired
  | formula. For all systems that are not real metals, this value can be
  | meaningless and should be avoided.

------------------------------------------------------------------------------
  Methods described in the following list of references were used in this FHI-aims run.
  If you publish the results, please make sure to cite these reference if they apply.
  FHI-aims is an academic code, and for our developers (often, Ph.D. students
  and postdocs), scientific credit in the community is essential.
  Thank you for helping us!

  For any use of FHI-aims, please cite:

    Volker Blum, Ralf Gehrke, Felix Hanke, Paula Havu, Ville Havu,
    Xinguo Ren, Karsten Reuter, and Matthias Scheffler
    'Ab initio molecular simulations with numeric atom-centered orbitals'
    Computer Physics Communications 180, 2175-2196 (2009)
    http://doi.org/10.1016/j.cpc.2009.06.022


  The provided symmetry information was generated with SPGlib:

    Atsushi Togo, Yusuke Seto, Dimitar Pashov
    SPGlib 1.7.3 obtained from http://spglib.sourceforge.net
    Copyright (C) 2008 Atsushi Togo


  The ELSI infrastructure was used in your run to solve the Kohn-Sham electronic structure.
  Please check out http://elsi-interchange.org to learn more.
  If scalability is important for your project, please acknowledge ELSI by citing:

    V. W-z. Yu, F. Corsetti, A. Garcia, W. P. Huhn, M. Jacquelin, W. Jia,
    B. Lange, L. Lin, J. Lu, W. Mi, A. Seifitokaldani, A. Vazquez-Mayagoitia,
    C. Yang, H. Yang, and V. Blum
    'ELSI: A unified software interface for Kohn-Sham electronic structure solvers'
    Computer Physics Communications 222, 267-285 (2018).
    http://doi.org/10.1016/j.cpc.2017.09.007


  For the real-space grid partitioning and parallelization used in this calculation, please cite:

    Ville Havu, Volker Blum, Paula Havu, and Matthias Scheffler,
    'Efficient O(N) integration for all-electron electronic structure calculation'
    'using numerically tabulated basis functions'
    Journal of Computational Physics 228, 8367-8379 (2009).
    http://doi.org/10.1016/j.jcp.2009.08.008

  Of course, there are many other important community references, e.g., those cited in the
  above references. Our list is limited to references that describe implementations in the
  FHI-aims code. The reason is purely practical (length of this list) - please credit others as well.

------------------------------------------------------------
          Leaving FHI-aims.
          Date     :  20220913, Time     :  153831.047

          Computational steps:
          | Number of self-consistency cycles          :           24
          | Number of SCF (re)initializations          :            1
          | Number of relaxation steps                 :            0

          Detailed time accounting                     :  max(cpu_time)    wall_clock(cpu1)
          | Total time                                  :      494.712 s         494.760 s
          | Preparation time                            :        1.467 s           1.467 s
          | Boundary condition initalization            :        0.852 s           0.852 s
          | Grid partitioning                           :        1.417 s           1.418 s
          | Preloading free-atom quantities on grid     :        1.818 s           1.819 s
          | Free-atom superposition energy              :        0.054 s           0.054 s
          | Total time for integrations                 :       66.894 s          66.897 s
          | Total time for solution of K.-S. equations  :      162.048 s         162.033 s
          | Total time for EV reorthonormalization      :        0.000 s           0.000 s
          | Total time for density & force components   :      193.761 s         193.762 s
          | Total time for mixing & preconditioning     :       14.242 s          14.239 s
          | Total time for Hartree multipole update     :        0.315 s           0.316 s
          | Total time for Hartree multipole sum        :       40.423 s          40.422 s
          | Total time for total energy evaluation      :        0.054 s           0.071 s
          | Total time NSC force correction             :        2.690 s           2.690 s
          | Total time for scaled ZORA corrections      :        0.000 s           0.000 s
          | Total time for vdW correction               :        9.148 s           9.150 s

          Partial memory accounting:
          | Residual value for overall tracked memory usage across tasks:     0.000000 MB (should be 0.000000 MB)
          | Peak values for overall tracked memory usage:
          |   Minimum:      242.482 MB (on task 115 after allocating temp_ham_ovlp)
          |   Maximum:      244.558 MB (on task  44 after allocating temp_ham_ovlp)
          |   Average:      243.394 MB
          | Largest tracked array allocation:
          |   Minimum:       78.143 MB (hamiltonian on task   0)
          |   Maximum:       78.143 MB (hamiltonian on task   0)
          |   Average:       78.143 MB
          Note:  These values currently only include a subset of arrays which are explicitly tracked.
          The "true" memory usage will be greater.

          Have a nice day.
------------------------------------------------------------
