------------------------------------------------------------
          Invoking FHI-aims ...

          When using FHI-aims, please cite the following reference:

            Volker Blum, Ralf Gehrke, Felix Hanke, Paula Havu,
            Ville Havu, Xinguo Ren, Karsten Reuter, and Matthias Scheffler,
            'Ab Initio Molecular Simulations with Numeric Atom-Centered Orbitals',
            Computer Physics Communications 180, 2175-2196 (2009)

          In addition, many other developments in FHI-aims are likely important for
          your particular application. A partial list of references is given at the end of
          this file. Thank you for giving credit to the authors of these developments.

          For any questions about FHI-aims, please visit our slack channel at

            https://fhi-aims.slack.com

          and our main development and support site at

            https://aims-git.rz-berlin.mpg.de .

          The latter site, in particular, has a wiki to collect information, as well
          as an issue tracker to log discussions, suggest improvements, and report issues
          or bugs. https://aims-git.rz-berlin.mpg.de is also the main development site
          of the project and all new and updated code versions can be obtained there.
          Please send an email to aims-coordinators@fhi-berlin.mpg.de and we will add
          you to these sites. They are for you and everyone is welcome there.

------------------------------------------------------------



  Date     :  20220916, Time     :  131435.232
  Time zero on CPU 1             :   0.331135600000000E+01  s.
  Internal wall clock time zero  :           432566075.232  s.

  FHI-aims created a unique identifier for this run for later identification
  aims_uuid : 0C790D31-6AAC-4B50-AD0B-8D01307A0873

  Build configuration of the current instance of FHI-aims
  -------------------------------------------------------
  FHI-aims version      : 220117
  Commit number         : 0c0e6afe2
  CMake host system     : Linux-5.3.18-24.99-default
  CMake version         : 3.22.0
  Fortran compiler      : /mpcdf/soft/SLE_15/packages/x86_64/intel_oneapi/2021.4/mpi/2021.4.0/bin/mpiifort (Intel) version 2021.4.0.20210910
  Fortran compiler flags: -O3 -ip -fp-model precise
  C compiler            : /mpcdf/soft/SLE_15/packages/x86_64/intel/2021.4.0/bin/icc (Intel) version 2021.4.0.20210910
  C compiler flags      : -O3 -ip -fp-model precise
  C++ compiler          : /mpcdf/soft/SLE_15/packages/x86_64/intel/2021.4.0/bin/icpc (Intel) version 2021.4.0.20210910
  C++ compiler flags    : -O3 -ip -fp-model precise
  Using MPI
  Using ScaLAPACK
  Using LibXC
  Using i-PI
  Using RLSY
  Linking against: /mpcdf/soft/SLE_15/packages/x86_64/intel_oneapi/2021.4/mkl/latest/lib/intel64/libmkl_intel_lp64.so
                   /mpcdf/soft/SLE_15/packages/x86_64/intel_oneapi/2021.4/mkl/latest/lib/intel64/libmkl_sequential.so
                   /mpcdf/soft/SLE_15/packages/x86_64/intel_oneapi/2021.4/mkl/latest/lib/intel64/libmkl_core.so
                   /mpcdf/soft/SLE_15/packages/x86_64/intel_oneapi/2021.4/mkl/latest/lib/intel64/libmkl_blacs_intelmpi_lp64.so
                   /mpcdf/soft/SLE_15/packages/x86_64/intel_oneapi/2021.4/mkl/latest/lib/intel64/libmkl_scalapack_lp64.so

  Using      216 parallel tasks.
  Task        0 on host ravg1088 reporting.
  Task        1 on host ravg1088 reporting.
  Task        2 on host ravg1088 reporting.
  Task        3 on host ravg1088 reporting.
  Task        4 on host ravg1088 reporting.
  Task        5 on host ravg1088 reporting.
  Task        6 on host ravg1088 reporting.
  Task        7 on host ravg1088 reporting.
  Task        8 on host ravg1088 reporting.
  Task        9 on host ravg1088 reporting.
  Task       10 on host ravg1088 reporting.
  Task       11 on host ravg1088 reporting.
  Task       12 on host ravg1088 reporting.
  Task       13 on host ravg1088 reporting.
  Task       14 on host ravg1088 reporting.
  Task       15 on host ravg1088 reporting.
  Task       16 on host ravg1088 reporting.
  Task       17 on host ravg1088 reporting.
  Task       18 on host ravg1088 reporting.
  Task       19 on host ravg1088 reporting.
  Task       20 on host ravg1088 reporting.
  Task       21 on host ravg1088 reporting.
  Task       22 on host ravg1088 reporting.
  Task       23 on host ravg1088 reporting.
  Task       24 on host ravg1088 reporting.
  Task       25 on host ravg1088 reporting.
  Task       26 on host ravg1088 reporting.
  Task       27 on host ravg1088 reporting.
  Task       28 on host ravg1088 reporting.
  Task       29 on host ravg1088 reporting.
  Task       30 on host ravg1088 reporting.
  Task       31 on host ravg1088 reporting.
  Task       32 on host ravg1088 reporting.
  Task       33 on host ravg1088 reporting.
  Task       34 on host ravg1088 reporting.
  Task       35 on host ravg1088 reporting.
  Task       36 on host ravg1088 reporting.
  Task       37 on host ravg1088 reporting.
  Task       38 on host ravg1088 reporting.
  Task       39 on host ravg1088 reporting.
  Task       40 on host ravg1088 reporting.
  Task       41 on host ravg1088 reporting.
  Task       42 on host ravg1088 reporting.
  Task       43 on host ravg1088 reporting.
  Task       44 on host ravg1088 reporting.
  Task       45 on host ravg1088 reporting.
  Task       46 on host ravg1088 reporting.
  Task       47 on host ravg1088 reporting.
  Task       48 on host ravg1088 reporting.
  Task       49 on host ravg1088 reporting.
  Task       50 on host ravg1088 reporting.
  Task       51 on host ravg1088 reporting.
  Task       52 on host ravg1088 reporting.
  Task       53 on host ravg1088 reporting.
  Task       54 on host ravg1088 reporting.
  Task       55 on host ravg1088 reporting.
  Task       56 on host ravg1088 reporting.
  Task       57 on host ravg1088 reporting.
  Task       58 on host ravg1088 reporting.
  Task       59 on host ravg1088 reporting.
  Task       60 on host ravg1088 reporting.
  Task       61 on host ravg1088 reporting.
  Task       62 on host ravg1088 reporting.
  Task       63 on host ravg1088 reporting.
  Task       64 on host ravg1088 reporting.
  Task       65 on host ravg1088 reporting.
  Task       66 on host ravg1088 reporting.
  Task       67 on host ravg1088 reporting.
  Task       68 on host ravg1088 reporting.
  Task       69 on host ravg1088 reporting.
  Task       70 on host ravg1088 reporting.
  Task       71 on host ravg1088 reporting.
  Task       72 on host ravg1089 reporting.
  Task       73 on host ravg1089 reporting.
  Task       74 on host ravg1089 reporting.
  Task       75 on host ravg1089 reporting.
  Task       76 on host ravg1089 reporting.
  Task       77 on host ravg1089 reporting.
  Task       78 on host ravg1089 reporting.
  Task       79 on host ravg1089 reporting.
  Task       80 on host ravg1089 reporting.
  Task       81 on host ravg1089 reporting.
  Task       82 on host ravg1089 reporting.
  Task       83 on host ravg1089 reporting.
  Task       84 on host ravg1089 reporting.
  Task       85 on host ravg1089 reporting.
  Task       86 on host ravg1089 reporting.
  Task       87 on host ravg1089 reporting.
  Task       88 on host ravg1089 reporting.
  Task       89 on host ravg1089 reporting.
  Task       90 on host ravg1089 reporting.
  Task       91 on host ravg1089 reporting.
  Task       92 on host ravg1089 reporting.
  Task       93 on host ravg1089 reporting.
  Task       94 on host ravg1089 reporting.
  Task       95 on host ravg1089 reporting.
  Task       96 on host ravg1089 reporting.
  Task       97 on host ravg1089 reporting.
  Task       98 on host ravg1089 reporting.
  Task       99 on host ravg1089 reporting.
  Task      100 on host ravg1089 reporting.
  Task      101 on host ravg1089 reporting.
  Task      102 on host ravg1089 reporting.
  Task      103 on host ravg1089 reporting.
  Task      104 on host ravg1089 reporting.
  Task      105 on host ravg1089 reporting.
  Task      106 on host ravg1089 reporting.
  Task      107 on host ravg1089 reporting.
  Task      108 on host ravg1089 reporting.
  Task      109 on host ravg1089 reporting.
  Task      110 on host ravg1089 reporting.
  Task      111 on host ravg1089 reporting.
  Task      112 on host ravg1089 reporting.
  Task      113 on host ravg1089 reporting.
  Task      114 on host ravg1089 reporting.
  Task      115 on host ravg1089 reporting.
  Task      116 on host ravg1089 reporting.
  Task      117 on host ravg1089 reporting.
  Task      118 on host ravg1089 reporting.
  Task      119 on host ravg1089 reporting.
  Task      120 on host ravg1089 reporting.
  Task      121 on host ravg1089 reporting.
  Task      122 on host ravg1089 reporting.
  Task      123 on host ravg1089 reporting.
  Task      124 on host ravg1089 reporting.
  Task      125 on host ravg1089 reporting.
  Task      126 on host ravg1089 reporting.
  Task      127 on host ravg1089 reporting.
  Task      128 on host ravg1089 reporting.
  Task      129 on host ravg1089 reporting.
  Task      130 on host ravg1089 reporting.
  Task      131 on host ravg1089 reporting.
  Task      132 on host ravg1089 reporting.
  Task      133 on host ravg1089 reporting.
  Task      134 on host ravg1089 reporting.
  Task      135 on host ravg1089 reporting.
  Task      136 on host ravg1089 reporting.
  Task      137 on host ravg1089 reporting.
  Task      138 on host ravg1089 reporting.
  Task      139 on host ravg1089 reporting.
  Task      140 on host ravg1089 reporting.
  Task      141 on host ravg1089 reporting.
  Task      142 on host ravg1089 reporting.
  Task      143 on host ravg1089 reporting.
  Task      144 on host ravg1091 reporting.
  Task      145 on host ravg1091 reporting.
  Task      146 on host ravg1091 reporting.
  Task      147 on host ravg1091 reporting.
  Task      148 on host ravg1091 reporting.
  Task      149 on host ravg1091 reporting.
  Task      150 on host ravg1091 reporting.
  Task      151 on host ravg1091 reporting.
  Task      152 on host ravg1091 reporting.
  Task      153 on host ravg1091 reporting.
  Task      154 on host ravg1091 reporting.
  Task      155 on host ravg1091 reporting.
  Task      156 on host ravg1091 reporting.
  Task      157 on host ravg1091 reporting.
  Task      158 on host ravg1091 reporting.
  Task      159 on host ravg1091 reporting.
  Task      160 on host ravg1091 reporting.
  Task      161 on host ravg1091 reporting.
  Task      162 on host ravg1091 reporting.
  Task      163 on host ravg1091 reporting.
  Task      164 on host ravg1091 reporting.
  Task      165 on host ravg1091 reporting.
  Task      166 on host ravg1091 reporting.
  Task      167 on host ravg1091 reporting.
  Task      168 on host ravg1091 reporting.
  Task      169 on host ravg1091 reporting.
  Task      170 on host ravg1091 reporting.
  Task      171 on host ravg1091 reporting.
  Task      172 on host ravg1091 reporting.
  Task      173 on host ravg1091 reporting.
  Task      174 on host ravg1091 reporting.
  Task      175 on host ravg1091 reporting.
  Task      176 on host ravg1091 reporting.
  Task      177 on host ravg1091 reporting.
  Task      178 on host ravg1091 reporting.
  Task      179 on host ravg1091 reporting.
  Task      180 on host ravg1091 reporting.
  Task      181 on host ravg1091 reporting.
  Task      182 on host ravg1091 reporting.
  Task      183 on host ravg1091 reporting.
  Task      184 on host ravg1091 reporting.
  Task      185 on host ravg1091 reporting.
  Task      186 on host ravg1091 reporting.
  Task      187 on host ravg1091 reporting.
  Task      188 on host ravg1091 reporting.
  Task      189 on host ravg1091 reporting.
  Task      190 on host ravg1091 reporting.
  Task      191 on host ravg1091 reporting.
  Task      192 on host ravg1091 reporting.
  Task      193 on host ravg1091 reporting.
  Task      194 on host ravg1091 reporting.
  Task      195 on host ravg1091 reporting.
  Task      196 on host ravg1091 reporting.
  Task      197 on host ravg1091 reporting.
  Task      198 on host ravg1091 reporting.
  Task      199 on host ravg1091 reporting.
  Task      200 on host ravg1091 reporting.
  Task      201 on host ravg1091 reporting.
  Task      202 on host ravg1091 reporting.
  Task      203 on host ravg1091 reporting.
  Task      204 on host ravg1091 reporting.
  Task      205 on host ravg1091 reporting.
  Task      206 on host ravg1091 reporting.
  Task      207 on host ravg1091 reporting.
  Task      208 on host ravg1091 reporting.
  Task      209 on host ravg1091 reporting.
  Task      210 on host ravg1091 reporting.
  Task      211 on host ravg1091 reporting.
  Task      212 on host ravg1091 reporting.
  Task      213 on host ravg1091 reporting.
  Task      214 on host ravg1091 reporting.
  Task      215 on host ravg1091 reporting.

  Performing system and environment tests:
  | Environment variable OMP_NUM_THREADS correctly set to 1.
  | Checking for ScaLAPACK...
  | Testing pdtran()...
  | All pdtran() tests passed.

  Obtaining array dimensions for all initial allocations:
  
  -----------------------------------------------------------------------
  Parsing control.in (first pass over file, find array dimensions only).
  The contents of control.in will be repeated verbatim below
  unless switched off by setting 'verbatim_writeout .false.' .
  in the first line of control.in .
  -----------------------------------------------------------------------
  
  xc                 hse06  0.11
  hse_unit b
  spin               collinear
  default_initial_moment 1
  energy_tolerance 1e-3
  charge      0.0
  relativistic       atomic_zora scalar
  #elsi_restart read
  # SCF settings
  relax_geometry bfgs 1E-3
  relax_unit_cell fixed_angles
  use_symmetric_forces .true.
  occupation_type gaussian       0.1
  # k-grid settings  (to be adjusted)
  k_grid  8 8 1
  #empty_states 8
  use_dipole_correction
  include_spin_orbit non_self_consistent
  # sc_accuracy_rho    1E-4
  #    sc_accuracy_eev    1E-3
  #    sc_accuracy_etot   1E-4
  #    sc_accuracy_forces 1E-2
  many_body_dispersion_nl    beta=0.83
  ################################################################################
  #
  #  FHI-aims code project
  #  Volker Blum, 2018
  #
  #  Suggested "intermediate" defaults for Se atom (to be pasted into control.in file)
  #
  #  2020/09/15 These "intermediate" settings are identical to past "tight" defaults
  #             and differ only in the "g" function that is now included in "tight".
  #
  ################################################################################
    species        Se
  #     global species definitions
      nucleus             34
      mass                78.96
  #
      l_hartree           6
  #
      cut_pot             4.0          2.0  1.0
      basis_dep_cutoff    1e-4
  #
      radial_base         55 7.0
      radial_multiplier   2
      angular_grids       specified
        division   0.0830  110
        division   0.1357  194
        division   0.7377  302
        division   0.8610  434
  #      division   0.9640  590
  #      division   1.0773  770
  #      division   2.5539  974
  #      outer_grid  974
        outer_grid  434
  ################################################################################
  #
  #  Definition of "minimal" basis
  #
  ################################################################################
  #     valence basis states
      valence      4  s   2.
      valence      4  p   4.
      valence      3  d  10.
  #     ion occupancy
      ion_occ      4  s   1.
      ion_occ      4  p   3.
      ion_occ      3  d  10.
  ################################################################################
  #
  #  Suggested additional basis functions. For production calculations,
  #  uncomment them one after another (the most important basis functions are
  #  listed first).
  #
  #  Constructed for dimers: 1.85 A, 2.15 A, 2.50 A, 3.00 A, 4.00 A
  #
  ################################################################################
  #  "First tier" - improvements: -336.21 meV to -36.85 meV
       hydro 3 d 4.3
       hydro 2 p 1.6
       hydro 4 f 7.2
       ionic 4 s auto
  #  "Second tier" - improvements: -14.39 meV to -1.49 meV
  #     hydro 5 g 10.4
  #     hydro 4 p 4.5
  #     hydro 4 d 6.2
  #     hydro 4 f 11.2
  #     hydro 1 s 0.65
  #     hydro 6 h 15.2
  #  "Third tier" - improvements: -0.46 meV and below
  #     hydro 5 g 14.4
  #     ionic 4 d auto
  #     hydro 4 f 22.4
  #     hydro 5 f 7.4
  #     hydro 5 p 8
  #     hydro 5 s 9.4
  #  "Fourth tier" - improvements: -0.12 meV and below
  #     hydro 5 d 11.6
  #     hydro 6 h 18
  #     hydro 4 p 4
  #     hydro 5 f 16
  #     hydro 4 s 3.9
  
  
  ################################################################################
  #
  #  FHI-aims code project
  #  Volker Blum, 2018
  #
  #  Suggested "intermediate" defaults for S atom (to be pasted into control.in file)
  #
  ################################################################################
    species        S
  #     global species definitions
      nucleus             16
      mass                32.065
  #
      l_hartree           6
  #
      cut_pot             4.0          2.0  1.0
      basis_dep_cutoff    1e-4
  #
      radial_base         44 7.0
      radial_multiplier   2
      angular_grids       specified
        division   0.4665  110
        division   0.5810  194
        division   0.7139  302
        division   0.8274  434
  #      division   0.9105  590
  #      division   1.0975  770
  #      division   1.2028  974
  #      outer_grid  974
        outer_grid  434
  ################################################################################
  #
  #  Definition of "minimal" basis
  #
  ################################################################################
  #     valence basis states
      valence      3  s   2.
      valence      3  p   4.
  #     ion occupancy
      ion_occ      3  s   1.
      ion_occ      3  p   3.
  ################################################################################
  #
  #  Suggested additional basis functions. For production calculations,
  #  uncomment them one after another (the most important basis functions are
  #  listed first).
  #
  #  Constructed for dimers: 1.6 A, 1.9 A, 2.5 A, 3.25 A, 4.0 A
  #
  ################################################################################
  #  "First tier" - improvements: -652.81 meV to -45.53 meV
       ionic 3 d auto
       hydro 2 p 1.8
       hydro 4 f 7
       ionic 3 s auto
  #  "Second tier" - improvements: -30.20 meV to -1.74 meV
  #     hydro 4 d 6.2
  for_aux     hydro 5 g 10.8
  #     hydro 4 p 4.9
  #     hydro 5 f 10
  #     hydro 1 s 0.8
  #  "Third tier" - improvements: -1.04 meV to -0.20 meV
  #     hydro 3 d 3.9
  #     hydro 3 d 2.7
  #     hydro 5 g 12
  #     hydro 4 p 10.4
  #     hydro 5 f 12.4
  #     hydro 2 s 1.9
  #  "Fourth tier" - improvements: -0.35 meV to -0.06 meV
  #     hydro 4 d 10.4
  #     hydro 4 p 7.2
  #     hydro 4 d 10
  #     hydro 5 g 19.2
  #     hydro 4 s 12
  
  ################################################################################
  #
  #  FHI-aims code project
  # Volker Blum, Fritz Haber Institute Berlin, 2009
  #
  #  Suggested "intermediate" defaults for Mo atom (to be pasted into control.in file)
  #
  #  See https://aaltodoc.aalto.fi/handle/123456789/33620 for the report these
  #  setting are based on
  ################################################################################
    species        Mo
  #     global species definitions
      nucleus             42
      mass                95.94
  #
      l_hartree           6
  #
      cut_pot             4.0  2.0  1.0
      basis_dep_cutoff    1e-4
  #
      radial_base         59 7.0
      radial_multiplier   2
      angular_grids specified
        division   0.3117   50
        division   0.6750  110
        division   1.0351  194
        division   1.2073  302
        division   1.6402  434
  #      division   1.9185  590
  #      division   2.0237  770
  #      division   2.0980  974
  #      division   2.7972 1202
  #      outer_grid  974
        outer_grid  434
  ################################################################################
  #
  #  Definition of "minimal" basis
  #
  ################################################################################
  #     valence basis states
      valence      5  s   1.
      valence      4  p   6.
      valence      4  d   5.
  #     ion occupancy
      ion_occ     5  s   0.
      ion_occ     4  p   6.
      ion_occ     4  d   4.
  ################################################################################
  #
  #  Suggested additional basis functions. For production calculations,
  #  uncomment them one after another (the most important basis functions are
  #  listed first).
  #
  #  Constructed for dimers: 1.675 A, 1.9 A, 2.375 A, 3.00 A, 4.00 A
  #
  ################################################################################
  #  "First tier"  - max. impr. -711.23  meV, min. impr. -21.07 meV
       hydro 4 f 8.4
       hydro 3 d 2.8
       ionic 5 p auto
       for_aux hydro 5 g 12
       ionic 5 s auto
  #  "Second tier" - max. impr. -39.38  meV, min. impr. -2.68 meV
  #     hydro 4 f 12.4
  #     hydro 3 d 3.3
  #     hydro 6 h 17.2
  #     hydro 4 f 7.6
  #     hydro 3 p 3.0
  #     hydro 1 s 0.65
  #  "Third tier"  - max. impr. -5.50 meV, min. impr. -0.47 meV
  #     hydro 4 f 29.2
  #     hydro 5 g 11.2
  #     hydro 3 d 6.8
  #     hydro 6 h 14.8
  #     hydro 2 p 2.3
  #     hydro 4 s 3.8
  #  "Fourth tier"  - max. impr. -0.58 meV, min. impr. -0.19 meV
  #     hydro 5 f 6.8
  #     hydro 5 d 14.8
  #     hydro 6 s 7.8
  #     hydro 5 g 20.8
  #     hydro 5 d 10.4
  #     hydro 5 p 9.8
  #  Further functions - -0.17 meV and below
  #     hydro 5 d 3.2
  ################################################################################
  #
  #  FHI-aims code project
  #  Volker Blum, Maria Dragoumi, Sebastian Kokott 2020
  #
  #  Suggested "intermediate" defaults for W atom (to be pasted into control.in file)
  #
  ################################################################################
    species          W
  #     global species definitions
      nucleus        74
      mass           183.84
  #
      l_hartree      6
  #
      cut_pot        4.0  2.0  1.0
      basis_dep_cutoff    1e-4
  #
      radial_base    71  7.0
      radial_multiplier  2
      angular_grids specified
        division   0.2901   50
        division   0.6986  110
        division   1.0528  194
        division   1.2659  302
        division   1.5223  434
  #      division   1.8111  590
  #      division   2.0105  770
  #      division   2.0413  974
  #      division   2.8804 1202
  #      outer_grid  974
        outer_grid  434
  ################################################################################
  #
  #  Definition of "minimal" basis
  #
  ################################################################################
  #     valence basis states
      valence      6  s   2.
      valence      5  p   6.
      valence      5  d   4.
      valence      4  f  14.
  #     ion occupancy
      ion_occ      6  s   1.
      ion_occ      5  p   6.
      ion_occ      5  d   3.
      ion_occ      4  f  14.
  ################################################################################
  #
  #  Suggested additional basis functions. For production calculations,
  #  uncomment them one after another (the most important basis functions are
  #  listed first).
  #
  #  Constructed for dimers: 1.775, 1.99, 2.50, 3.25, 4.50 AA
  #
  ################################################################################
  #
  #  "First tier" - improvements: -603.77 meV to -28.99 meV
       hydro 4 f 7.8
       hydro 4 d 5.8
       ionic 6 p auto
    for_aux   hydro 5 g 12.4
       ionic 6 s auto
  #  "Second tier" - improvements: -28.30 meV to -1.31 meV
  #     hydro 6 h 16.8
  #     ionic 5 d auto
  #     hydro 4 f 8.6
  #     hydro 5 g 16.8
  #     hydro 5 d 8.4
  #     hydro 3 p 3.3
  #     hydro 1 s 0.55
  #  "Third tier" - max. impr. -1.79 meV, min. impr. -0.26 meV
  #     hydro 5 f 10.8
  #     hydro 5 g 34.4
  #     hydro 6 h 20.8
  #     hydro 5 g 12.8
  #     hydro 2 p 1.6
  #     hydro 4 s 4.7
  #     hydro 6 d 18.4
  #  "Fourth tier" -0.46 max. impr. - meV, min. impr. -0.09 meV
  #     hydro 6 h 21.6
  #     hydro 5 f 22.4
  #     hydro 4 f 4
  #     hydro 5 p 9.6
  #     hydro 6 d 17.2
  #     hydro 3 p 5.2
  #     hydro 5 g 4.7
  #     hydro 6 s 7.6
  
  -----------------------------------------------------------------------
  Completed first pass over input file control.in .
  -----------------------------------------------------------------------
  
  
  -----------------------------------------------------------------------
  Parsing geometry.in (first pass over file, find array dimensions only).
  The contents of geometry.in will be repeated verbatim below
  unless switched off by setting 'verbatim_writeout .false.' .
  in the first line of geometry.in .
  -----------------------------------------------------------------------
  
  #
  # This is the geometry file that corresponds to the current relaxation step.
  # If you do not want this file to be written, set the "write_restart_geometry" flag to .false.
  #  aims_uuid : DADBC0B7-0DA9-4014-A30C-1E705C597A52
  #
    set_vacuum_level        52.830000
  lattice_vector      3.27154363     -0.00000000     -0.00000000
  lattice_vector     -1.63611280      2.83292909      0.00000000
  lattice_vector     -0.00000000     -0.00000000     99.63715511
  atom      -0.00015768      0.94404968      2.64703508 W
  atom       1.63561328      1.88829428      4.32157923 Se
  atom       1.63552429      1.88834613      0.97247825 Se
  #
  # What follows is the current estimated Hessian matrix constructed by the BFGS algorithm.
  # This is NOT the true Hessian matrix of the system.
  # If you do not want this information here, switch it off using the "hessian_to_restart_geometry" keyword.
  #
  trust_radius             0.0015534447
  hessian_file
  
  -----------------------------------------------------------------------
  Completed first pass over input file geometry.in .
  -----------------------------------------------------------------------
  

  Basic array size parameters:
  | Number of species                 :        4
  | Number of atoms                   :        3
  | Number of lattice vectors         :        3
  | Max. basis fn. angular momentum   :        4
  | Max. atomic/ionic basis occupied n:        6
  | Max. number of basis fn. types    :        3
  | Max. radial fns per species/type  :       14
  | Max. logarithmic grid size        :     1483
  | Max. radial integration grid size :      143
  | Max. angular integration grid size:      434
  | Max. angular grid division number :        8
  | Radial grid for Hartree potential :     1483
  | Number of spin channels           :        2

------------------------------------------------------------
          Reading file control.in.
------------------------------------------------------------

  XC: Using HSE-functional with OMEGA =  0.110000E+00 <units>.
  XC: For the actual units (bohr^-1 or Angstrom^-1), see below.
  hse_unit: Unit for the HSE06 hybrid functional screening parameter set to bohr^(-1).
  Spin treatment: Spin density functional theory - collinear spins.
  Initial spin moment per atom:   1.0000
  Max energy increase before discarding BFGS move:   0.100000E-02 eV
  Charge =   0.000000E+00: Neutral system requested explicitly.
  Scalar relativistic treatment of kinetic energy: on-site free-atom approximation to ZORA.
  Geometry relaxation: Modified BFGS - TRM (trust radius method) for lattice optimization.
  Convergence accuracy for geometry relaxation: Maximum force <   0.100000E-02 eV/A.
  Occupation type: Gaussian broadening, width =   0.100000E+00 eV.
  Found k-point grid:         8         8         1
  Using dipole correction.
  Calculating non-self-consistent second-variational spin-orbit coupling after scf-cycle
  You have request a SOC run with spin-polarization.
  symmetry_reduced_k_grid will be turned off.
  Using libMBD for calculating MBD and TS energies
 
  Reading configuration options for species Se                  .
  | Found nuclear charge :  34.0000
  | Found atomic mass :    78.9600000000000      amu
  | Found l_max for Hartree potential  :   6
  | Found cutoff potl. onset [A], width [A], scale factor :    4.00000    2.00000    1.00000
  | Threshold for basis-dependent cutoff potential is   0.100000E-03
  | Found data for basic radial integration grid :    55 points, outermost radius =    7.000 A
  | Found multiplier for basic radial grid :   2
  | Found angular grid specification: user-specified.
  | Specified grid contains     5 separate shells.
  | Check grid settings after all constraints further below.
  | Found free-atom valence shell :  4 s   2.000
  | Found free-atom valence shell :  4 p   4.000
  | Found free-atom valence shell :  3 d  10.000
  | Found free-ion valence shell :  4 s   1.000
  | Found free-ion valence shell :  4 p   3.000
  | Found free-ion valence shell :  3 d  10.000
  | Found hydrogenic basis function :  3 d   4.300
  | Found hydrogenic basis function :  2 p   1.600
  | Found hydrogenic basis function :  4 f   7.200
  | Found ionic basis function :  4 s , default cutoff radius.
  Species Se                  : Missing cutoff potential type.
  Defaulting to exp(1/x)/(1-x)^2 type cutoff potential.
  Species Se: No 'logarithmic' tag. Using default grid for free atom:
  | Default logarithmic grid data [bohr] : 0.1000E-03 0.1000E+03 0.1012E+01
  | Will include ionic basis functions of  2.0-fold positive Se                   ion.
  Species Se: On-site basis accuracy parameter (for Gram-Schmidt orthonormalisation) not specified.
  Using default value basis_acc =  0.1000000E-03.
  Species Se                  : Using default innermost maximum threshold i_radial=  2 for radial functions.
  Species Se                  : Default cutoff onset for free atom density etc. : 0.40000000E+01 AA.
  Species Se                  : Basic radial grid will be enhanced according to radial_multiplier =   2, to contain   111 grid points.
 
  Reading configuration options for species S                   .
  | Found nuclear charge :  16.0000
  | Found atomic mass :    32.0650000000000      amu
  | Found l_max for Hartree potential  :   6
  | Found cutoff potl. onset [A], width [A], scale factor :    4.00000    2.00000    1.00000
  | Threshold for basis-dependent cutoff potential is   0.100000E-03
  | Found data for basic radial integration grid :    44 points, outermost radius =    7.000 A
  | Found multiplier for basic radial grid :   2
  | Found angular grid specification: user-specified.
  | Specified grid contains     5 separate shells.
  | Check grid settings after all constraints further below.
  | Found free-atom valence shell :  3 s   2.000
  | Found free-atom valence shell :  3 p   4.000
  | Found free-ion valence shell :  3 s   1.000
  | Found free-ion valence shell :  3 p   3.000
  | Found ionic basis function :  3 d , default cutoff radius.
  | Found hydrogenic basis function :  2 p   1.800
  | Found hydrogenic basis function :  4 f   7.000
  | Found ionic basis function :  3 s , default cutoff radius.
  | Found hydrogenic extended basis function :  5 g  10.800
  Species S                   : Missing cutoff potential type.
  Defaulting to exp(1/x)/(1-x)^2 type cutoff potential.
  Species S : No 'logarithmic' tag. Using default grid for free atom:
  | Default logarithmic grid data [bohr] : 0.1000E-03 0.1000E+03 0.1012E+01
  | Will include ionic basis functions of  2.0-fold positive S                    ion.
  Species S : On-site basis accuracy parameter (for Gram-Schmidt orthonormalisation) not specified.
  Using default value basis_acc =  0.1000000E-03.
  Species S                   : Using default innermost maximum threshold i_radial=  2 for radial functions.
  Species S                   : Default cutoff onset for free atom density etc. : 0.40000000E+01 AA.
  Species S                   : Basic radial grid will be enhanced according to radial_multiplier =   2, to contain    89 grid points.
 
  Reading configuration options for species Mo                  .
  | Found nuclear charge :  42.0000
  | Found atomic mass :    95.9400000000000      amu
  | Found l_max for Hartree potential  :   6
  | Found cutoff potl. onset [A], width [A], scale factor :    4.00000    2.00000    1.00000
  | Threshold for basis-dependent cutoff potential is   0.100000E-03
  | Found data for basic radial integration grid :    59 points, outermost radius =    7.000 A
  | Found multiplier for basic radial grid :   2
  | Found angular grid specification: user-specified.
  | Specified grid contains     6 separate shells.
  | Check grid settings after all constraints further below.
  | Found free-atom valence shell :  5 s   1.000
  | Found free-atom valence shell :  4 p   6.000
  | Found free-atom valence shell :  4 d   5.000
  | Found free-ion valence shell :  5 s   0.000
  | Found free-ion valence shell :  4 p   6.000
  | Found free-ion valence shell :  4 d   4.000
  | Found hydrogenic basis function :  4 f   8.400
  | Found hydrogenic basis function :  3 d   2.800
  | Found ionic basis function :  5 p , default cutoff radius.
  | Found hydrogenic extended basis function :  5 g  12.000
  | Found ionic basis function :  5 s , default cutoff radius.
  Species Mo                  : Missing cutoff potential type.
  Defaulting to exp(1/x)/(1-x)^2 type cutoff potential.
  Species Mo: No 'logarithmic' tag. Using default grid for free atom:
  | Default logarithmic grid data [bohr] : 0.1000E-03 0.1000E+03 0.1012E+01
  | Will include ionic basis functions of  2.0-fold positive Mo                   ion.
  Species Mo: On-site basis accuracy parameter (for Gram-Schmidt orthonormalisation) not specified.
  Using default value basis_acc =  0.1000000E-03.
  Species Mo                  : Using default innermost maximum threshold i_radial=  2 for radial functions.
  Species Mo                  : Default cutoff onset for free atom density etc. : 0.40000000E+01 AA.
  Species Mo                  : Basic radial grid will be enhanced according to radial_multiplier =   2, to contain   119 grid points.
 
  Reading configuration options for species W                   .
  | Found nuclear charge :  74.0000
  | Found atomic mass :    183.840000000000      amu
  | Found l_max for Hartree potential  :   6
  | Found cutoff potl. onset [A], width [A], scale factor :    4.00000    2.00000    1.00000
  | Threshold for basis-dependent cutoff potential is   0.100000E-03
  | Found data for basic radial integration grid :    71 points, outermost radius =    7.000 A
  | Found multiplier for basic radial grid :   2
  | Found angular grid specification: user-specified.
  | Specified grid contains     6 separate shells.
  | Check grid settings after all constraints further below.
  | Found free-atom valence shell :  6 s   2.000
  | Found free-atom valence shell :  5 p   6.000
  | Found free-atom valence shell :  5 d   4.000
  | Found free-atom valence shell :  4 f  14.000
  | Found free-ion valence shell :  6 s   1.000
  | Found free-ion valence shell :  5 p   6.000
  | Found free-ion valence shell :  5 d   3.000
  | Found free-ion valence shell :  4 f  14.000
  | Found hydrogenic basis function :  4 f   7.800
  | Found hydrogenic basis function :  4 d   5.800
  | Found ionic basis function :  6 p , default cutoff radius.
  | Found hydrogenic extended basis function :  5 g  12.400
  | Found ionic basis function :  6 s , default cutoff radius.
  Species W                   : Missing cutoff potential type.
  Defaulting to exp(1/x)/(1-x)^2 type cutoff potential.
  Species W : No 'logarithmic' tag. Using default grid for free atom:
  | Default logarithmic grid data [bohr] : 0.1000E-03 0.1000E+03 0.1012E+01
  | Will include ionic basis functions of  2.0-fold positive W                    ion.
  Species W : On-site basis accuracy parameter (for Gram-Schmidt orthonormalisation) not specified.
  Using default value basis_acc =  0.1000000E-03.
  Species W                   : Using default innermost maximum threshold i_radial=  2 for radial functions.
  Species W                   : Default cutoff onset for free atom density etc. : 0.40000000E+01 AA.
  Species W                   : Basic radial grid will be enhanced according to radial_multiplier =   2, to contain   143 grid points.
 
  Finished reading input file 'control.in'.
 
------------------------------------------------------------


------------------------------------------------------------
          Reading geometry description geometry.in.
------------------------------------------------------------
  Vacuum level in z-axis :   0.528300E+02
  Found keyword 'hessian_file', indicating that this is the continuation of a structure optimization.
  Verifying the existence of the file 'hessian.aims' on all processors
  | The smallest distance between any two atoms is         2.52409863 AA.
  | The first atom of this pair is atom number                      1 .
  | The second atom of this pair is atom number                     3 .
  | Wigner-Seitz cell of the first atom image           0     0     0 .
  | (The Wigner-Seitz cell of the second atom is 0 0 0  by definition.)

  Symmetry information by spglib:
  | Precision set to  0.1E-04
  | Number of Operations  : 1
  | Space group           : 1
  | International         : P1
  | Schoenflies           : C1^1
  Input structure read successfully.
  The structure contains        3 atoms,  and a total of        142.000 electrons.

  Input geometry:
  | Unit cell:
  |        3.27154363        0.00000000        0.00000000
  |       -1.63611280        2.83292909        0.00000000
  |        0.00000000        0.00000000       99.63715511
  | Atomic structure:
  |       Atom                x [A]            y [A]            z [A]
  |    1: Species W            -0.00015768        0.94404968        2.64703508
  |    2: Species Se            1.63561328        1.88829428        4.32157923
  |    3: Species Se            1.63552429        1.88834613        0.97247825

  Lattice parameters for 3D lattice (in Angstroms) :     3.271544    3.271445   99.637155
  Angle(s) between unit vectors (in degrees)       :    90.000000   90.000000  120.007894


  Quantities derived from the lattice vectors:
  | Reciprocal lattice vector 1:  1.920557  1.109187  0.000000
  | Reciprocal lattice vector 2: -0.000000  2.217911  0.000000
  | Reciprocal lattice vector 3:  0.000000  0.000000  0.063061
  | Unit cell volume                               :   0.923442E+03  A^3

  Fractional coordinates:
                         L1                L2                L3
       atom_frac         0.16660731        0.33324155        0.02656675  W
       atom_frac         0.83329697        0.66655190        0.04337317  Se
       atom_frac         0.83327892        0.66657021        0.00976020  Se

  Initial moments and charges:
  |  Atom   Moment         Charge        Species
  |     1   0.100000E+01   0.000000E+00   W
  |     2   0.100000E+01   0.000000E+00   Se
  |     3   0.100000E+01   0.000000E+00   Se

 
  Finished reading input file 'control.in'.
 

------------------------------------------------------------
          Reading geometry description geometry.in.
------------------------------------------------------------
 
  Consistency checks for stacksize environment parameter are next.
 
  | Maximum stacksize for task 0: unlimited
  | Maximum stacksize for task 1: unlimited
  | Maximum stacksize for task 2: unlimited
  | Maximum stacksize for task 3: unlimited
  | Maximum stacksize for task 4: unlimited
  | Maximum stacksize for task 5: unlimited
  | Maximum stacksize for task 6: unlimited
  | Maximum stacksize for task 7: unlimited
  | Maximum stacksize for task 8: unlimited
  | Maximum stacksize for task 9: unlimited
  | Maximum stacksize for task 10: unlimited
  | Maximum stacksize for task 11: unlimited
  | Maximum stacksize for task 12: unlimited
  | Maximum stacksize for task 13: unlimited
  | Maximum stacksize for task 14: unlimited
  | Maximum stacksize for task 15: unlimited
  | Maximum stacksize for task 16: unlimited
  | Maximum stacksize for task 17: unlimited
  | Maximum stacksize for task 18: unlimited
  | Maximum stacksize for task 19: unlimited
  | Maximum stacksize for task 20: unlimited
  | Maximum stacksize for task 21: unlimited
  | Maximum stacksize for task 22: unlimited
  | Maximum stacksize for task 23: unlimited
  | Maximum stacksize for task 24: unlimited
  | Maximum stacksize for task 25: unlimited
  | Maximum stacksize for task 26: unlimited
  | Maximum stacksize for task 27: unlimited
  | Maximum stacksize for task 28: unlimited
  | Maximum stacksize for task 29: unlimited
  | Maximum stacksize for task 30: unlimited
  | Maximum stacksize for task 31: unlimited
  | Maximum stacksize for task 32: unlimited
  | Maximum stacksize for task 33: unlimited
  | Maximum stacksize for task 34: unlimited
  | Maximum stacksize for task 35: unlimited
  | Maximum stacksize for task 36: unlimited
  | Maximum stacksize for task 37: unlimited
  | Maximum stacksize for task 38: unlimited
  | Maximum stacksize for task 39: unlimited
  | Maximum stacksize for task 40: unlimited
  | Maximum stacksize for task 41: unlimited
  | Maximum stacksize for task 42: unlimited
  | Maximum stacksize for task 43: unlimited
  | Maximum stacksize for task 44: unlimited
  | Maximum stacksize for task 45: unlimited
  | Maximum stacksize for task 46: unlimited
  | Maximum stacksize for task 47: unlimited
  | Maximum stacksize for task 48: unlimited
  | Maximum stacksize for task 49: unlimited
  | Maximum stacksize for task 50: unlimited
  | Maximum stacksize for task 51: unlimited
  | Maximum stacksize for task 52: unlimited
  | Maximum stacksize for task 53: unlimited
  | Maximum stacksize for task 54: unlimited
  | Maximum stacksize for task 55: unlimited
  | Maximum stacksize for task 56: unlimited
  | Maximum stacksize for task 57: unlimited
  | Maximum stacksize for task 58: unlimited
  | Maximum stacksize for task 59: unlimited
  | Maximum stacksize for task 60: unlimited
  | Maximum stacksize for task 61: unlimited
  | Maximum stacksize for task 62: unlimited
  | Maximum stacksize for task 63: unlimited
  | Maximum stacksize for task 64: unlimited
  | Maximum stacksize for task 65: unlimited
  | Maximum stacksize for task 66: unlimited
  | Maximum stacksize for task 67: unlimited
  | Maximum stacksize for task 68: unlimited
  | Maximum stacksize for task 69: unlimited
  | Maximum stacksize for task 70: unlimited
  | Maximum stacksize for task 71: unlimited
  | Maximum stacksize for task 72: unlimited
  | Maximum stacksize for task 73: unlimited
  | Maximum stacksize for task 74: unlimited
  | Maximum stacksize for task 75: unlimited
  | Maximum stacksize for task 76: unlimited
  | Maximum stacksize for task 77: unlimited
  | Maximum stacksize for task 78: unlimited
  | Maximum stacksize for task 79: unlimited
  | Maximum stacksize for task 80: unlimited
  | Maximum stacksize for task 81: unlimited
  | Maximum stacksize for task 82: unlimited
  | Maximum stacksize for task 83: unlimited
  | Maximum stacksize for task 84: unlimited
  | Maximum stacksize for task 85: unlimited
  | Maximum stacksize for task 86: unlimited
  | Maximum stacksize for task 87: unlimited
  | Maximum stacksize for task 88: unlimited
  | Maximum stacksize for task 89: unlimited
  | Maximum stacksize for task 90: unlimited
  | Maximum stacksize for task 91: unlimited
  | Maximum stacksize for task 92: unlimited
  | Maximum stacksize for task 93: unlimited
  | Maximum stacksize for task 94: unlimited
  | Maximum stacksize for task 95: unlimited
  | Maximum stacksize for task 96: unlimited
  | Maximum stacksize for task 97: unlimited
  | Maximum stacksize for task 98: unlimited
  | Maximum stacksize for task 99: unlimited
  | Maximum stacksize for task 100: unlimited
  | Maximum stacksize for task 101: unlimited
  | Maximum stacksize for task 102: unlimited
  | Maximum stacksize for task 103: unlimited
  | Maximum stacksize for task 104: unlimited
  | Maximum stacksize for task 105: unlimited
  | Maximum stacksize for task 106: unlimited
  | Maximum stacksize for task 107: unlimited
  | Maximum stacksize for task 108: unlimited
  | Maximum stacksize for task 109: unlimited
  | Maximum stacksize for task 110: unlimited
  | Maximum stacksize for task 111: unlimited
  | Maximum stacksize for task 112: unlimited
  | Maximum stacksize for task 113: unlimited
  | Maximum stacksize for task 114: unlimited
  | Maximum stacksize for task 115: unlimited
  | Maximum stacksize for task 116: unlimited
  | Maximum stacksize for task 117: unlimited
  | Maximum stacksize for task 118: unlimited
  | Maximum stacksize for task 119: unlimited
  | Maximum stacksize for task 120: unlimited
  | Maximum stacksize for task 121: unlimited
  | Maximum stacksize for task 122: unlimited
  | Maximum stacksize for task 123: unlimited
  | Maximum stacksize for task 124: unlimited
  | Maximum stacksize for task 125: unlimited
  | Maximum stacksize for task 126: unlimited
  | Maximum stacksize for task 127: unlimited
  | Maximum stacksize for task 128: unlimited
  | Maximum stacksize for task 129: unlimited
  | Maximum stacksize for task 130: unlimited
  | Maximum stacksize for task 131: unlimited
  | Maximum stacksize for task 132: unlimited
  | Maximum stacksize for task 133: unlimited
  | Maximum stacksize for task 134: unlimited
  | Maximum stacksize for task 135: unlimited
  | Maximum stacksize for task 136: unlimited
  | Maximum stacksize for task 137: unlimited
  | Maximum stacksize for task 138: unlimited
  | Maximum stacksize for task 139: unlimited
  | Maximum stacksize for task 140: unlimited
  | Maximum stacksize for task 141: unlimited
  | Maximum stacksize for task 142: unlimited
  | Maximum stacksize for task 143: unlimited
  | Maximum stacksize for task 144: unlimited
  | Maximum stacksize for task 145: unlimited
  | Maximum stacksize for task 146: unlimited
  | Maximum stacksize for task 147: unlimited
  | Maximum stacksize for task 148: unlimited
  | Maximum stacksize for task 149: unlimited
  | Maximum stacksize for task 150: unlimited
  | Maximum stacksize for task 151: unlimited
  | Maximum stacksize for task 152: unlimited
  | Maximum stacksize for task 153: unlimited
  | Maximum stacksize for task 154: unlimited
  | Maximum stacksize for task 155: unlimited
  | Maximum stacksize for task 156: unlimited
  | Maximum stacksize for task 157: unlimited
  | Maximum stacksize for task 158: unlimited
  | Maximum stacksize for task 159: unlimited
  | Maximum stacksize for task 160: unlimited
  | Maximum stacksize for task 161: unlimited
  | Maximum stacksize for task 162: unlimited
  | Maximum stacksize for task 163: unlimited
  | Maximum stacksize for task 164: unlimited
  | Maximum stacksize for task 165: unlimited
  | Maximum stacksize for task 166: unlimited
  | Maximum stacksize for task 167: unlimited
  | Maximum stacksize for task 168: unlimited
  | Maximum stacksize for task 169: unlimited
  | Maximum stacksize for task 170: unlimited
  | Maximum stacksize for task 171: unlimited
  | Maximum stacksize for task 172: unlimited
  | Maximum stacksize for task 173: unlimited
  | Maximum stacksize for task 174: unlimited
  | Maximum stacksize for task 175: unlimited
  | Maximum stacksize for task 176: unlimited
  | Maximum stacksize for task 177: unlimited
  | Maximum stacksize for task 178: unlimited
  | Maximum stacksize for task 179: unlimited
  | Maximum stacksize for task 180: unlimited
  | Maximum stacksize for task 181: unlimited
  | Maximum stacksize for task 182: unlimited
  | Maximum stacksize for task 183: unlimited
  | Maximum stacksize for task 184: unlimited
  | Maximum stacksize for task 185: unlimited
  | Maximum stacksize for task 186: unlimited
  | Maximum stacksize for task 187: unlimited
  | Maximum stacksize for task 188: unlimited
  | Maximum stacksize for task 189: unlimited
  | Maximum stacksize for task 190: unlimited
  | Maximum stacksize for task 191: unlimited
  | Maximum stacksize for task 192: unlimited
  | Maximum stacksize for task 193: unlimited
  | Maximum stacksize for task 194: unlimited
  | Maximum stacksize for task 195: unlimited
  | Maximum stacksize for task 196: unlimited
  | Maximum stacksize for task 197: unlimited
  | Maximum stacksize for task 198: unlimited
  | Maximum stacksize for task 199: unlimited
  | Maximum stacksize for task 200: unlimited
  | Maximum stacksize for task 201: unlimited
  | Maximum stacksize for task 202: unlimited
  | Maximum stacksize for task 203: unlimited
  | Maximum stacksize for task 204: unlimited
  | Maximum stacksize for task 205: unlimited
  | Maximum stacksize for task 206: unlimited
  | Maximum stacksize for task 207: unlimited
  | Maximum stacksize for task 208: unlimited
  | Maximum stacksize for task 209: unlimited
  | Maximum stacksize for task 210: unlimited
  | Maximum stacksize for task 211: unlimited
  | Maximum stacksize for task 212: unlimited
  | Maximum stacksize for task 213: unlimited
  | Maximum stacksize for task 214: unlimited
  | Maximum stacksize for task 215: unlimited
  | Current stacksize for task 0: unlimited
  | Current stacksize for task 1: unlimited
  | Current stacksize for task 2: unlimited
  | Current stacksize for task 3: unlimited
  | Current stacksize for task 4: unlimited
  | Current stacksize for task 5: unlimited
  | Current stacksize for task 6: unlimited
  | Current stacksize for task 7: unlimited
  | Current stacksize for task 8: unlimited
  | Current stacksize for task 9: unlimited
  | Current stacksize for task 10: unlimited
  | Current stacksize for task 11: unlimited
  | Current stacksize for task 12: unlimited
  | Current stacksize for task 13: unlimited
  | Current stacksize for task 14: unlimited
  | Current stacksize for task 15: unlimited
  | Current stacksize for task 16: unlimited
  | Current stacksize for task 17: unlimited
  | Current stacksize for task 18: unlimited
  | Current stacksize for task 19: unlimited
  | Current stacksize for task 20: unlimited
  | Current stacksize for task 21: unlimited
  | Current stacksize for task 22: unlimited
  | Current stacksize for task 23: unlimited
  | Current stacksize for task 24: unlimited
  | Current stacksize for task 25: unlimited
  | Current stacksize for task 26: unlimited
  | Current stacksize for task 27: unlimited
  | Current stacksize for task 28: unlimited
  | Current stacksize for task 29: unlimited
  | Current stacksize for task 30: unlimited
  | Current stacksize for task 31: unlimited
  | Current stacksize for task 32: unlimited
  | Current stacksize for task 33: unlimited
  | Current stacksize for task 34: unlimited
  | Current stacksize for task 35: unlimited
  | Current stacksize for task 36: unlimited
  | Current stacksize for task 37: unlimited
  | Current stacksize for task 38: unlimited
  | Current stacksize for task 39: unlimited
  | Current stacksize for task 40: unlimited
  | Current stacksize for task 41: unlimited
  | Current stacksize for task 42: unlimited
  | Current stacksize for task 43: unlimited
  | Current stacksize for task 44: unlimited
  | Current stacksize for task 45: unlimited
  | Current stacksize for task 46: unlimited
  | Current stacksize for task 47: unlimited
  | Current stacksize for task 48: unlimited
  | Current stacksize for task 49: unlimited
  | Current stacksize for task 50: unlimited
  | Current stacksize for task 51: unlimited
  | Current stacksize for task 52: unlimited
  | Current stacksize for task 53: unlimited
  | Current stacksize for task 54: unlimited
  | Current stacksize for task 55: unlimited
  | Current stacksize for task 56: unlimited
  | Current stacksize for task 57: unlimited
  | Current stacksize for task 58: unlimited
  | Current stacksize for task 59: unlimited
  | Current stacksize for task 60: unlimited
  | Current stacksize for task 61: unlimited
  | Current stacksize for task 62: unlimited
  | Current stacksize for task 63: unlimited
  | Current stacksize for task 64: unlimited
  | Current stacksize for task 65: unlimited
  | Current stacksize for task 66: unlimited
  | Current stacksize for task 67: unlimited
  | Current stacksize for task 68: unlimited
  | Current stacksize for task 69: unlimited
  | Current stacksize for task 70: unlimited
  | Current stacksize for task 71: unlimited
  | Current stacksize for task 72: unlimited
  | Current stacksize for task 73: unlimited
  | Current stacksize for task 74: unlimited
  | Current stacksize for task 75: unlimited
  | Current stacksize for task 76: unlimited
  | Current stacksize for task 77: unlimited
  | Current stacksize for task 78: unlimited
  | Current stacksize for task 79: unlimited
  | Current stacksize for task 80: unlimited
  | Current stacksize for task 81: unlimited
  | Current stacksize for task 82: unlimited
  | Current stacksize for task 83: unlimited
  | Current stacksize for task 84: unlimited
  | Current stacksize for task 85: unlimited
  | Current stacksize for task 86: unlimited
  | Current stacksize for task 87: unlimited
  | Current stacksize for task 88: unlimited
  | Current stacksize for task 89: unlimited
  | Current stacksize for task 90: unlimited
  | Current stacksize for task 91: unlimited
  | Current stacksize for task 92: unlimited
  | Current stacksize for task 93: unlimited
  | Current stacksize for task 94: unlimited
  | Current stacksize for task 95: unlimited
  | Current stacksize for task 96: unlimited
  | Current stacksize for task 97: unlimited
  | Current stacksize for task 98: unlimited
  | Current stacksize for task 99: unlimited
  | Current stacksize for task 100: unlimited
  | Current stacksize for task 101: unlimited
  | Current stacksize for task 102: unlimited
  | Current stacksize for task 103: unlimited
  | Current stacksize for task 104: unlimited
  | Current stacksize for task 105: unlimited
  | Current stacksize for task 106: unlimited
  | Current stacksize for task 107: unlimited
  | Current stacksize for task 108: unlimited
  | Current stacksize for task 109: unlimited
  | Current stacksize for task 110: unlimited
  | Current stacksize for task 111: unlimited
  | Current stacksize for task 112: unlimited
  | Current stacksize for task 113: unlimited
  | Current stacksize for task 114: unlimited
  | Current stacksize for task 115: unlimited
  | Current stacksize for task 116: unlimited
  | Current stacksize for task 117: unlimited
  | Current stacksize for task 118: unlimited
  | Current stacksize for task 119: unlimited
  | Current stacksize for task 120: unlimited
  | Current stacksize for task 121: unlimited
  | Current stacksize for task 122: unlimited
  | Current stacksize for task 123: unlimited
  | Current stacksize for task 124: unlimited
  | Current stacksize for task 125: unlimited
  | Current stacksize for task 126: unlimited
  | Current stacksize for task 127: unlimited
  | Current stacksize for task 128: unlimited
  | Current stacksize for task 129: unlimited
  | Current stacksize for task 130: unlimited
  | Current stacksize for task 131: unlimited
  | Current stacksize for task 132: unlimited
  | Current stacksize for task 133: unlimited
  | Current stacksize for task 134: unlimited
  | Current stacksize for task 135: unlimited
  | Current stacksize for task 136: unlimited
  | Current stacksize for task 137: unlimited
  | Current stacksize for task 138: unlimited
  | Current stacksize for task 139: unlimited
  | Current stacksize for task 140: unlimited
  | Current stacksize for task 141: unlimited
  | Current stacksize for task 142: unlimited
  | Current stacksize for task 143: unlimited
  | Current stacksize for task 144: unlimited
  | Current stacksize for task 145: unlimited
  | Current stacksize for task 146: unlimited
  | Current stacksize for task 147: unlimited
  | Current stacksize for task 148: unlimited
  | Current stacksize for task 149: unlimited
  | Current stacksize for task 150: unlimited
  | Current stacksize for task 151: unlimited
  | Current stacksize for task 152: unlimited
  | Current stacksize for task 153: unlimited
  | Current stacksize for task 154: unlimited
  | Current stacksize for task 155: unlimited
  | Current stacksize for task 156: unlimited
  | Current stacksize for task 157: unlimited
  | Current stacksize for task 158: unlimited
  | Current stacksize for task 159: unlimited
  | Current stacksize for task 160: unlimited
  | Current stacksize for task 161: unlimited
  | Current stacksize for task 162: unlimited
  | Current stacksize for task 163: unlimited
  | Current stacksize for task 164: unlimited
  | Current stacksize for task 165: unlimited
  | Current stacksize for task 166: unlimited
  | Current stacksize for task 167: unlimited
  | Current stacksize for task 168: unlimited
  | Current stacksize for task 169: unlimited
  | Current stacksize for task 170: unlimited
  | Current stacksize for task 171: unlimited
  | Current stacksize for task 172: unlimited
  | Current stacksize for task 173: unlimited
  | Current stacksize for task 174: unlimited
  | Current stacksize for task 175: unlimited
  | Current stacksize for task 176: unlimited
  | Current stacksize for task 177: unlimited
  | Current stacksize for task 178: unlimited
  | Current stacksize for task 179: unlimited
  | Current stacksize for task 180: unlimited
  | Current stacksize for task 181: unlimited
  | Current stacksize for task 182: unlimited
  | Current stacksize for task 183: unlimited
  | Current stacksize for task 184: unlimited
  | Current stacksize for task 185: unlimited
  | Current stacksize for task 186: unlimited
  | Current stacksize for task 187: unlimited
  | Current stacksize for task 188: unlimited
  | Current stacksize for task 189: unlimited
  | Current stacksize for task 190: unlimited
  | Current stacksize for task 191: unlimited
  | Current stacksize for task 192: unlimited
  | Current stacksize for task 193: unlimited
  | Current stacksize for task 194: unlimited
  | Current stacksize for task 195: unlimited
  | Current stacksize for task 196: unlimited
  | Current stacksize for task 197: unlimited
  | Current stacksize for task 198: unlimited
  | Current stacksize for task 199: unlimited
  | Current stacksize for task 200: unlimited
  | Current stacksize for task 201: unlimited
  | Current stacksize for task 202: unlimited
  | Current stacksize for task 203: unlimited
  | Current stacksize for task 204: unlimited
  | Current stacksize for task 205: unlimited
  | Current stacksize for task 206: unlimited
  | Current stacksize for task 207: unlimited
  | Current stacksize for task 208: unlimited
  | Current stacksize for task 209: unlimited
  | Current stacksize for task 210: unlimited
  | Current stacksize for task 211: unlimited
  | Current stacksize for task 212: unlimited
  | Current stacksize for task 213: unlimited
  | Current stacksize for task 214: unlimited
  | Current stacksize for task 215: unlimited
 
  Consistency checks for the contents of control.in are next.
 
  HSE06 screening parameters: omega_HF  =      0.11000000 bohr^-1, and
                              omega_PBE =      0.11000000 bohr^-1.
  MPI_IN_PLACE appears to work with this MPI implementation.
  | Keeping use_mpi_in_place .true. (see manual).
  Explicit treatment of the Coulomb operator is needed, but the RI method is not specified.
  Coulomb operator: Defaulting to 'LVL fast' resolution of identity - RI_type = LVL_fast
  Species Se: Using default value for prodbas_acc =   1.000000E-04.
  Species Se: Using default value max_l_prodbas =    20.
  Species S: Using default value for prodbas_acc =   1.000000E-04.
  Species S: Using default value max_l_prodbas =    20.
  Species Mo: Using default value for prodbas_acc =   1.000000E-04.
  Species Mo: Using default value max_l_prodbas =    20.
  Species W: Using default value for prodbas_acc =   1.000000E-04.
  Species W: Using default value max_l_prodbas =    20.
  Target number of points in a grid batch is not set. Defaulting to  100
  Method for grid partitioning is not set. Defaulting to parallel hash+maxmin partitioning.
  Batch size limit is not set. Defaulting to    200
  By default, will store active basis functions for each batch.
  If in need of memory, prune_basis_once .false. can be used to disable this option.
  communication_type for Hartree potential was not specified.
  Defaulting to calc_hartree .
  Defaulting to Pulay charge density mixer.
  Pulay mixer: Number of relevant iterations not set.
  Defaulting to    8 iterations.
  Pulay mixer: Number of initial linear mixing iterations not set.
  Defaulting to    0 iterations.
  Work space size for distributed Hartree potential not set.
  Defaulting to   0.200000E+03 MB.
  Mixing parameter for charge density mixing has not been set.
  Using default: charge_mix_param =     0.0500.
  The mixing parameter will be adjusted in iteration number     2 of the first full s.c.f. cycle only.
  Mixing parameter for spin density mixing has not been set.
  Using charge_mix_param as default:     0.0500.
  Algorithm-dependent basis array size parameters:
  | n_max_pulay                         :        8
  Maximum number of self-consistency iterations not provided.
  Presetting  1000 iterations.
  Presetting      1001 iterations before the initial mixing cycle
  is restarted anyway using the sc_init_iter criterion / keyword.
  Presetting a factor      1.000 between actual scf density residual
  and density convergence criterion sc_accuracy_rho below which sc_init_iter
  takes no effect.
 * No s.c.f. convergence criteria (sc_accuracy_*) were provided in control.in.
 * The run will proceed with a reasonable default guess, but please check whether.
 * the s.c.f. cycles seem to take too much or too little time.
  No maximum number of relaxation steps, defaulting to     1000
  Using explicit Hessian from geometry.in.
  Maximum energy tolerance by which TRM/BFGS trajectory may increase over multiple steps:   0.300000E-02
  No harmonic length scale. Defaulting to   0.250000E-01 A.
  No trust radius initializer. Defaulting to   0.200000E+00 A.
  Unit cell relaxation: Restricted relaxation with fixed angles between lattice vectors.
  Unit cell relaxation: Analytical stress will be used.
  Analytical stress will be computed.
  Analytical stress calculation: Only the upper triangle is calculated.
                                 Final output is symmetrized.
  Analytical stress calculation: scf convergence accuracy of stress not set.
                                 Analytical stress self-consistency will not be checked explicitly.
                                 Be sure to set other criteria like sc_accuracy_rho tight enough.
  Forces evaluation will include force correction term due to incomplete self-consistency (default).
 * Notice: The s.c.f. convergence criterion sc_accuracy_rho was not provided.
 * We used to stop in this case, and ask the user to provide reasonable
 * scf convergence criteria. However, this led some users to employ criteria
 * that led to extremely long run times, e.g., for simple relaxation.
 * We now preset a default value for sc_accuracy_rho if it is not set.
 * You may still wish to check if this setting is too tight or too loose for your needs.
 * Based on n_atoms and forces and force-correction status, FHI-aims chose sc_accuracy_rho =  0.333333E-06 .
  Force calculation: scf convergence accuracy of forces not set.
  Defaulting to 'sc_accuracy_forces not_checked'.
  Handling of forces: Unphysical translation and rotation will be removed from forces.
  No accuracy limit for integral partition fn. given. Defaulting to  0.1000E-14.
  No threshold value for u(r) in integrations given. Defaulting to  0.1000E-05.
  No accuracy for occupation numbers given. Defaulting to  0.1000E-12.
  No threshold value for occupation numbers given. Defaulting to  0.0000E+00.
  No accuracy for fermi level given. Defaulting to  0.1000E-19.
  Maximum # of iterations to find E_F not set. Defaulting to  200.
  Preferred method for the eigenvalue solver ('KS_method') not specified in 'control.in'.
  Calling BLACS routine to test compilation state
  Since ScaLAPACK support is enabled, defaulting to ELPA (via ELSI).
  Will not use alltoall communication since running on < 1024 CPUs.
  Threshold for basis singularities not set.
  Default threshold for basis singularities:  0.1000E-04
  partition_type (choice of integration weights) for integrals was not specified.
  | Using a version of the partition function of Stratmann and coworkers ('stratmann_sparse').
  | At each grid point, the set of atoms used to build the partition table is smoothly restricted to
  | only those atoms whose free-atom density would be non-zero at that grid point.
  Partitioning for Hartree potential was not defined. Using partition_type for integrals.
  | Adjusted default value of keyword multip_moments_threshold to:       0.10000000E-11
  | This value may affect high angular momentum components of the Hartree potential in periodic systems.
  Threshold for auxiliary basis singularities not set.
  Default threshold for auxiliary basis singularities:  0.1000E-04
  No q(lm)/r^(l+1) cutoff set for long-range Hartree potential.
  | Using default value of  0.100000E-09 .
  | Verify using the multipole_threshold keyword.
  Defaulting to new monopole extrapolation.
  Density update method: automatic selection selected.
  Using density matrix based charge density update.
  Using density matrix based charge density update.
  Using packed matrix style: index .
 * NOTE: You are attempting to run a periodic structure with an exchange treatment
 * which requires a two-electron Coulomb operator (Hartree-Fock or a hybrid functional).
 * The present implementation is reliable to our knowledge, but some things
 * (like band structure output, or perhaps the auxilary basis set for small
 * orbital basis sets - see the "for_aux" keyword) require extra care.
 * Please let us know if you encounter any trouble.
  Coulomb operator: Defaulting to screening threshold for four-center integrals:   0.100000E-06
  Coulomb operator: Defaulting to screening threshold for Coulomb matrix:   0.100000E-09
  Coulomb operator: Defaulting to 'LVL_fast' resolution of identity - RI_type = LVL_fast 
  No other resolution of identity version is supported for periodic boundary conditions at present.
  Coulomb operator: Defaulting to logarithmic spherical Bessel transform integrals (use_logsbt .true.).
  HSE with LVL_fast: Also defaulting to logarithmic spherical Bessel transform integrals.
  Geometry relaxation: A file "geometry.in.next_step" is written out by default after each step.
  | This file contains the geometry of the current relaxation step as well as
  | the current Hessian matrix needed to restart the relaxation algorithm.
  | If you do not want part or all of this information, use the keywords
  | "write_restart_geometry" or "hessian_to_restart_geometry" to switch the output off.
  Defaulting to use full k-point grid (no symmetry reduction).
  Charge integration errors on the 3D integration grid will be compensated
  by explicit normalization and distribution of residual charges.
  Use the "compensate_multipole_errors" flag to change this behaviour.
  LVL not implemented with density matrix yet
  -> switching to transformed overlap
  LVL probably works better with logsbt
  Default to 1D ("use_logsbt") integrations for auxiliary 2-center integrals.
  Default onset of logarithmic r-grid for SBT is -38.000000000000
  Default onset of logarithmic k-grid for SBT is -25.000000000000
  Default range of logarithmic r- and k-grid for SBT is  45.000000000000
  Default number of logarithmic r- and k-grid for SBT is   4096
  * Use logSBT for radial HSE integration, too
  Default of use_2d_corr is to use the efficient 2D distribution where possible
 
  Consistency checks for the contents of geometry.in are next.
 

  Range separation radius for Ewald summation (hartree_convergence_parameter):      5.00000000 bohr.
  Number of empty states per atom not set in control.in - providing a guess from actual geometry.
  | Total number of empty states used during s.c.f. cycle:       20
  If you use a very high smearing, use empty_states (per atom!) in control.in to increase this value.

  Structure-dependent array size parameters: 
  | Number of distinct atom types in initial rho :        2
  | Maximum number of distinct radial functions  :       56
  | Maximum number of basis functions            :      133
  | Number of Kohn-Sham states (occupied + empty):       91
------------------------------------------------------------
  Setting Coulomb cut-width to  1.091868692359 * rcut.
  Setting Coulomb cutting radius rcut to 13.084415908206 A.

------------------------------------------------------------
          Preparing all fixed parts of the calculation.
------------------------------------------------------------
  Determining machine precision:
    2.225073858507201E-308
  Setting up grids for atomic and cluster calculations.

  Creating wave function, potential, and density for free atoms.

  Species: Se

  List of occupied orbitals and eigenvalues:
    n    l              occ      energy [Ha]    energy [eV]
    1    0           2.0000      -466.337810    -12689.6975
    2    0           2.0000       -59.202598     -1610.9847
    3    0           2.0000        -7.847116      -213.5309
    4    0           2.0000        -0.634372       -17.2621
    2    1           6.0000       -52.061107     -1416.6548
    3    1           6.0000        -5.620941      -152.9536
    4    1           4.0000        -0.238469        -6.4891
    3    2          10.0000        -1.951949       -53.1152


  Species: S

  List of occupied orbitals and eigenvalues:
    n    l              occ      energy [Ha]    energy [eV]
    1    0           2.0000       -88.680731     -2413.1255
    2    0           2.0000        -7.781719      -211.7513
    3    0           2.0000        -0.633662       -17.2428
    2    1           6.0000        -5.751976      -156.5192
    3    1           4.0000        -0.257086        -6.9957


  Species: Mo

  List of occupied orbitals and eigenvalues:
    n    l              occ      energy [Ha]    energy [eV]
    1    0           2.0000      -745.344654    -20281.8600
    2    0           2.0000      -103.288246     -2810.6162
    3    0           2.0000       -17.516687      -476.6533
    4    0           2.0000        -2.358559       -64.1796
    5    0           1.0000        -0.145159        -3.9500
    2    1           6.0000       -92.308627     -2511.8455
    3    1           6.0000       -13.936005      -379.2180
    4    1           6.0000        -1.408138       -38.3174
    3    2          10.0000        -8.119011      -220.9295
    4    2           5.0000        -0.132984        -3.6187


  Species: W

  List of occupied orbitals and eigenvalues:
    n    l              occ      energy [Ha]    energy [eV]
    1    0           2.0000     -2764.899999    -75236.7570
    2    0           2.0000      -447.822848    -12185.8797
    3    0           2.0000      -101.923634     -2773.4832
    4    0           2.0000       -20.945301      -569.9506
    5    0           2.0000        -2.899582       -78.9016
    6    0           2.0000        -0.207066        -5.6345
    2    1           6.0000      -391.021390    -10640.2334
    3    1           6.0000       -85.417793     -2324.3364
    4    1           6.0000       -15.562838      -423.4864
    5    1           6.0000        -1.582233       -43.0547
    3    2          10.0000       -66.517936     -1810.0451
    4    2          10.0000        -8.758436      -238.3292
    5    2           4.0000        -0.161873        -4.4048
    4    3          14.0000        -1.221948       -33.2509

  Spin-polarized or charged system:
  Charge density initialized according to selected moments and charges.

  Creating spin-polarized density from free atoms.

  Species: W
  Charge:   0.000000
  Moment:   1.000000

  List of occupied orbitals and eigenvalues:
    n    l      energy [Ha]    energy [eV]    occupation
  Spin-up
    1    0     -2764.899000    -75236.7298     1.00000000
    2    0      -447.822681    -12185.8752     1.00000000
    3    0      -101.922923     -2773.4638     1.00000000
    4    0       -20.945058      -569.9440     1.00000000
    5    0        -2.905627       -79.0661     1.00000000
    6    0        -0.213317        -5.8046     1.00000000
    2    1      -391.021066    -10640.2246     3.00000000
    3    1       -85.417117     -2324.3180     3.00000000
    4    1       -15.562543      -423.4783     3.00000000
    5    1        -1.590642       -43.2836     3.00000000
    3    2       -66.517516     -1810.0337     5.00000000
    4    2        -8.758257      -238.3243     5.00000000
    5    2        -0.171822        -4.6755     2.50000000
    4    3        -1.222659       -33.2703     7.00000000
  Spin-down
    1    0     -2764.899056    -75236.7313     1.00000000
    2    0      -447.821174    -12185.8342     1.00000000
    3    0      -101.922548     -2773.4536     1.00000000
    4    0       -20.943787      -569.9094     1.00000000
    5    0        -2.891730       -78.6880     1.00000000
    6    0        -0.199872        -5.4388     1.00000000
    2    1      -391.019876    -10640.1922     3.00000000
    3    1       -85.416673     -2324.3059     3.00000000
    4    1       -15.561378      -423.4466     3.00000000
    5    1        -1.571998       -42.7762     3.00000000
    3    2       -66.516556     -1810.0076     5.00000000
    4    2        -8.756865      -238.2864     5.00000000
    5    2        -0.150406        -4.0928     1.50000000
    4    3        -1.219483       -33.1838     7.00000000


  Species: Se
  Charge:   0.000000
  Moment:   1.000000

  List of occupied orbitals and eigenvalues:
    n    l      energy [Ha]    energy [eV]    occupation
  Spin-up
    1    0      -466.337310    -12689.6839     1.00000000
    2    0       -59.201719     -1610.9607     1.00000000
    3    0        -7.846988      -213.5274     1.00000000
    4    0        -0.647100       -17.6085     1.00000000
    2    1       -52.060596     -1416.6409     3.00000000
    3    1        -5.620960      -152.9541     3.00000000
    4    1        -0.250878        -6.8267     2.50000000
    3    2        -1.952476       -53.1296     5.00000000
  Spin-down
    1    0      -466.335544    -12689.6358     1.00000000
    2    0       -59.200834     -1610.9366     1.00000000
    3    0        -7.844705      -213.4653     1.00000000
    4    0        -0.618821       -16.8390     1.00000000
    2    1       -52.058963     -1416.5965     3.00000000
    3    1        -5.618382      -152.8840     3.00000000
    4    1        -0.223345        -6.0775     1.50000000
    3    2        -1.948888       -53.0319     5.00000000


  Adding cutoff potential to free-atom effective potential.
  Creating fixed part of basis set: Ionic, confined, hydrogenic.
 
  Se                   ion:

  List of free ionic orbitals and eigenvalues:
    n    l      energy [Ha]    energy [eV]
    1    0      -467.261007    -12714.8189
    2    0       -60.104893     -1635.5374
    3    0        -8.743714      -237.9286
    4    0        -1.414053       -38.4783
    2    1       -52.964156     -1441.2280
    3    1        -6.516916      -177.3343
    4    1        -0.961869       -26.1738
    3    2        -2.844511       -77.4031


  List of ionic basis orbitals and eigenvalues:
    n    l      energy [Ha]    energy [eV]    outer radius [A]
    4    0        -1.414046       -38.4782       4.083166

 
  Se                   hydrogenic:
 
  List of hydrogenic basis orbitals: 
    n    l      effective z      eigenvalue [eV]  inner max. [A]     outer max. [A]     outer radius [A]   
    3    2         4.300000       -27.9518           1.103845           1.103845           5.278265
    2    1         1.600000        -8.6828           1.326010           1.326010           5.475439
    4    3         7.200000       -44.0822           1.173422           1.173422           4.965294
 
 
  S                    ion:

  List of free ionic orbitals and eigenvalues:
    n    l      energy [Ha]    energy [eV]
    1    0       -89.703778     -2440.9640
    2    0        -8.775428      -238.7916
    3    0        -1.470343       -40.0101
    2    1        -6.747660      -183.6132
    3    1        -1.048627       -28.5346


  List of ionic basis orbitals and eigenvalues:
    n    l      energy [Ha]    energy [eV]    outer radius [A]
    3    2        -0.495605       -13.4861       5.386362
    3    0        -1.470336       -40.0099       3.967934

 
  S                    hydrogenic:
 
  List of hydrogenic basis orbitals: 
    n    l      effective z      eigenvalue [eV]  inner max. [A]     outer max. [A]     outer radius [A]   
    2    1         1.800000       -11.0118           1.168531           1.168531           5.452614
    4    3         7.000000       -41.6672           1.212182           1.212182           5.066981
 
  List of extra hydrogenic orbitals for auxiliary basis: 
    n    l      effective z      eigenvalue [eV]  inner max. [A]     outer max. [A]     outer radius [A]   
    5    4        10.800000       -63.4785           1.227092           1.227092           4.766538
 
 
  Mo                   ion:

  List of free ionic orbitals and eigenvalues:
    n    l      energy [Ha]    energy [eV]
    1    0      -746.048685    -20301.0176
    2    0      -103.980912     -2829.4646
    3    0       -18.206601      -495.4268
    4    0        -3.040545       -82.7374
    2    1       -93.001013     -2530.6863
    3    1       -14.625827      -397.9890
    4    1        -2.084855       -56.7318
    3    2        -8.808854      -239.7011
    4    2        -0.765435       -20.8285


  List of ionic basis orbitals and eigenvalues:
    n    l      energy [Ha]    energy [eV]    outer radius [A]
    5    1        -0.465587       -12.6693       5.456393
    5    0        -0.650331       -17.6964       5.390095

 
  Mo                   hydrogenic:
 
  List of hydrogenic basis orbitals: 
    n    l      effective z      eigenvalue [eV]  inner max. [A]     outer max. [A]     outer radius [A]   
    4    3         8.400000       -60.0010           1.009788           1.009788           4.487018
    3    2         2.800000       -11.8048           1.687401           1.687401           5.456393
 
  List of extra hydrogenic orbitals for auxiliary basis: 
    n    l      effective z      eigenvalue [eV]  inner max. [A]     outer max. [A]     outer radius [A]   
    5    4        12.000000       -78.3687           1.100005           1.100005           4.432498
 
 
  W                    ion:

  List of free ionic orbitals and eigenvalues:
    n    l      energy [Ha]    energy [eV]
    1    0     -2765.664016    -75257.5469
    2    0      -448.543169    -12205.4806
    3    0      -102.635476     -2792.8534
    4    0       -21.655379      -589.2728
    5    0        -3.604872       -98.0936
    6    0        -0.752243       -20.4696
    2    1      -391.740682    -10659.8063
    3    1       -86.129333     -2343.6984
    4    1       -16.272893      -442.8080
    5    1        -2.280103       -62.0448
    3    2       -67.229405     -1829.4052
    4    2        -9.468448      -257.6496
    5    2        -0.806537       -21.9470
    4    3        -1.931058       -52.5468


  List of ionic basis orbitals and eigenvalues:
[...]
    120       1.00000                     -38.106417         -37.160170             0.000000
    121       1.00000                     -38.102737         -37.157619             0.002551
    122       1.00000                     -38.102737         -37.157619             0.000000
    123       1.00000                     -38.102688         -37.153737             0.003883
    124       1.00000                     -38.102688         -37.153737             0.000000
    125       1.00000                     -22.029853         -22.029781            15.123955
    126       1.00000                     -22.029853         -22.029781             0.000000
    127       1.00000                     -20.578454         -20.515527             1.514254
    128       1.00000                     -20.578454         -20.515527             0.000000
    129       1.00000                     -12.659093         -12.658732             7.856795
    130       1.00000                     -12.659093         -12.658732             0.000000
    131       1.00000                      -8.287804          -8.398007             4.260725
    132       1.00000                      -8.287804          -8.398007             0.000000
    133       1.00000                      -8.285914          -8.323952             0.074055
    134       1.00000                      -8.285914          -8.323952             0.000000
    135       1.00000                      -8.171049          -7.992651             0.331301
    136       1.00000                      -8.171049          -7.992651             0.000000
    137       1.00000                      -6.930566          -7.149758             0.842893
    138       1.00000                      -6.930566          -7.149758             0.000000
    139       1.00000                      -6.929090          -6.750965             0.398793
    140       1.00000                      -6.929090          -6.750965             0.000000
    141       1.00000                      -6.053163          -5.976172             0.774793
    142       1.00000                      -6.053162          -5.976172             0.000000
    143       0.00000                      -1.845714          -2.012104             3.964068
    144       0.00000                      -1.845714          -2.012104             0.000000
    145       0.00000                      -1.844823          -1.754671             0.257433
    146       0.00000                      -1.844823          -1.754671             0.000000
    147       0.00000                      -1.671927          -1.677699             0.076972
    148       0.00000                      -1.671927          -1.677699             0.000000
    149       0.00000                      -1.669997          -1.497942             0.179757
    150       0.00000                      -1.669997          -1.497942             0.000000
    151       0.00000                       0.161025           0.166626             1.664568
    152       0.00000                       0.161025           0.166626             0.000000
    153       0.00000                       2.556071           2.582685             2.416059
    154       0.00000                       2.556071           2.582685             0.000000
    155       0.00000                       2.911953           2.918337             0.335651
    156       0.00000                       2.911953           2.918337             0.000000
    157       0.00000                       4.292049           4.317218             1.398881
    158       0.00000                       4.292049           4.317218             0.000000
    159       0.00000                       6.705229           6.602550             2.285332
    160       0.00000                       6.705229           6.602550             0.000000
    161       0.00000                       6.708472           7.027300             0.424750
    162       0.00000                       6.708472           7.027300             0.000000
    163       0.00000                       7.978729           7.981543             0.954244
    164       0.00000                       7.978729           7.981544             0.000000
    165       0.00000                       9.337959           9.334337             1.352793
    166       0.00000                       9.337959           9.334337             0.000000
    167       0.00000                       9.341950           9.366851             0.032514
    168       0.00000                       9.341950           9.366851             0.000000
    169       0.00000                      12.299253          12.301381             2.934530
    170       0.00000                      12.299253          12.301381             0.000000
    171       0.00000                      12.644052          12.646071             0.344691
    172       0.00000                      12.644052          12.646071             0.000000
    173       0.00000                      13.526316          13.506394             0.860322
    174       0.00000                      13.526316          13.506394             0.000000
    175       0.00000                      13.528271          13.552104             0.045711
    176       0.00000                      13.528271          13.552104             0.000000
    177       0.00000                      13.745386          13.665652             0.113547
    178       0.00000                      13.745386          13.665652             0.000000
    179       0.00000                      13.747464          13.934206             0.268554
    180       0.00000                      13.747464          13.934206             0.000000
    181       0.00000                      15.302540          15.628983             1.694777
    182       0.00000                      15.302540          15.628983             0.000000

  What follows are estimated values for band gap, HOMO, LUMO, etc.
  | They are estimated on a discrete k-point grid and not necessarily exact.
  | For converged numbers, create a DOS and/or band structure plot on a denser k-grid.

  Highest occupied state (VBM) at     -5.52421567 eV (relative to internal zero)
  | Occupation number:      1.00000000
  | K-point:      54 at    0.750000    0.625000    0.000000 (in units of recip. lattice)

  Lowest unoccupied state (CBM) at    -3.34412753 eV (relative to internal zero)
  | Occupation number:      0.00000000
  | K-point:      11 at    0.125000    0.250000    0.000000 (in units of recip. lattice)

  ESTIMATED overall HOMO-LUMO gap:      2.18008814 eV between HOMO at k-point 54 and LUMO at k-point 11
  | This appears to be an indirect band gap.
  | Smallest direct gap :      2.31456589 eV for k_point 28 at    0.375000    0.375000    0.000000 (in units of recip. lattice)
  The gap value is above 0.2 eV. Unless you are using a very sparse k-point grid,
  this system is most likely an insulator or a semiconductor.
  | Potential vacuum level, "upper" slab surface:    -0.06065578 eV
  | Potential vacuum level, "lower" slab surface:    -0.06066524 eV
  | Work function ("upper" slab surface)        :     4.74236279 eV
  | Work function ("lower" slab surface)        :     4.74235333 eV
  *** Warning: band gap may exist, check the suitability to define work function using chemical potential.
  | VBM (reference: upper vacuum level)         :     5.46355989 eV
  | CBM (reference: upper vacuum level)         :     3.28347175 eV

  Spin-orbit coupling                                     :  max(cpu_time)    wall_clock(cpu1)
  | Computing matrix elements for SOC operator            :          0.396               0.437
  | Constructing second-variational Hamiltonian           :          0.007               0.007
  | Diagonalizing second-variational Hamiltonian          :          0.009               0.008
  | Syncing data and calculating occupations              :          0.009               0.009
  | Writing out data, calculating band gaps, etc.         :          0.001               0.001
  | Total SOC time                                        :          0.463               0.464

  Partial memory accounting:
  | Current value for overall tracked memory usage:
  |   Minimum:       19.882 MB (on task  34)
  |   Maximum:       61.063 MB (on task 118)
  |   Average:       42.046 MB
  | Peak value for overall tracked memory usage:
  |   Minimum:       50.976 MB (on task  34 after allocating d_wave)
  |   Maximum:       96.202 MB (on task 128 after allocating d_wave)
  |   Average:       74.650 MB
  | Largest tracked array allocation so far:
  |   Minimum:        8.798 MB (d_aux_mat on task   3)
  |   Maximum:       26.395 MB (d_aux_mat on task  19)
  |   Average:       16.386 MB
  Note:  These values currently only include a subset of arrays which are explicitly tracked.
  The "true" memory usage will be greater.
 ------------------------------------------------------------
 Work function related results without post-SCF corrections:
 ------------------------------------------------------------
  | Chemical Potential                          :    -4.78576737 eV
  Writing energy levels:
  | Potential vacuum level, "upper" slab surface:    -0.06065578 eV
  | Potential vacuum level, "lower" slab surface:    -0.06066524 eV
  Spin-up energy levels:
  | Work function-spin ("upper" slab surface)   :     4.72511159 eV
  | Work function-spin ("lower" slab surface)   :     4.72510213 eV
  *** Warning: band gap may exist, check the suitability to define work function using chemical potential.
  | VBM-spin (reference: upper vacuum level)    :     5.68679899 eV
  | CBM-spin (reference: upper vacuum level)    :     3.17537791 eV
  Spin-down energy levels:
  | Work function-spin ("upper" slab surface)   :     4.72511159 eV
  | Work function-spin ("lower" slab surface)   :     4.72510213 eV
  *** Warning: band gap may exist, check the suitability to define work function using chemical potential.
  | VBM-spin (reference: upper vacuum level)    :     5.68679905 eV
  | CBM-spin (reference: upper vacuum level)    :     3.17537791 eV
 ------------------------------------------------------------
 Work function related results including post-SCF second variational SOC corrections:
 ------------------------------------------------------------
  | Chemical Potential                          :    -4.80301857 eV
  Writing energy levels:
  | Potential vacuum level, "upper" slab surface:    -0.06065578 eV
  | Potential vacuum level, "lower" slab surface:    -0.06066524 eV
  | Work function ("upper" slab surface)        :     4.74236279 eV
  | Work function ("lower" slab surface)        :     4.74235333 eV
  *** Warning: band gap may exist, check the suitability to define work function using chemical potential.
  | VBM (reference: upper vacuum level)         :     5.46355989 eV
  | CBM (reference: upper vacuum level)         :     3.28347175 eV
 ------------------------------------------------------------

------------------------------------------------------------------------------
  Final output of selected total energy values:

  The following output summarizes some interesting total energy values
  at the end of a run (AFTER all relaxation, molecular dynamics, etc.).

  | Total energy of the DFT / Hartree-Fock s.c.f. calculation      :        -585789.033523748 eV
  | Final zero-broadening corrected energy (caution - metals only) :        -585789.033523748 eV
  | Total energy after non-SC SOC correction (DO NOT USE)          :        -585790.751607146 eV
  | For reference only, the value of 1 Hartree used in FHI-aims is :             27.211384500 eV
  | For reference only, the overall average (free atom contribution
  | + realspace contribution) of the electrostatic potential after
  | s.c.f. convergence is                                          :             -1.373420587 eV

  Before relying on these values, please be sure to understand exactly which
  total energy value is referred to by a given number. Different objects may
  all carry the same name 'total energy'. Definitions:

  Total energy of the DFT / Hartree-Fock s.c.f. calculation:
  | Note that this energy does not include ANY quantities calculated after the
  | s.c.f. cycle, in particular not ANY RPA, MP2, etc. many-body perturbation terms.

  Final zero-broadening corrected energy:
  | For metallic systems only, a broadening of the occupation numbers at the Fermi
  | level can be extrapolated back to zero broadening by an electron-gas inspired
  | formula. For all systems that are not real metals, this value can be
  | meaningless and should be avoided.

------------------------------------------------------------------------------
  Methods described in the following list of references were used in this FHI-aims run.
  If you publish the results, please make sure to cite these reference if they apply.
  FHI-aims is an academic code, and for our developers (often, Ph.D. students
  and postdocs), scientific credit in the community is essential.
  Thank you for helping us!

  For any use of FHI-aims, please cite:

    Volker Blum, Ralf Gehrke, Felix Hanke, Paula Havu, Ville Havu,
    Xinguo Ren, Karsten Reuter, and Matthias Scheffler
    'Ab initio molecular simulations with numeric atom-centered orbitals'
    Computer Physics Communications 180, 2175-2196 (2009)
    http://doi.org/10.1016/j.cpc.2009.06.022


  For the analytical stress tensor used in your run, please cite:

    Franz Knuth, Christian Carbogno, Viktor Atalla, Volker Blum, Matthias Scheffler
    'All-electron formalism for total energy strain derivatives and
    stress tensor components for numeric atom-centered orbitals'
    Computer Physics Communications 190, 33-50 (2015).
    http://doi.org/10.1016/j.cpc.2015.01.003


  For Hartree-Fock, hybrid functionals, or many-body perturbation theory used in your run, please cite:

    Xinguo Ren, Patrick Rinke, Volker Blum, Juergen Wieferink, Alex Tkatchenko,
    Andrea Sanfilippo, Karsten Reuter, and Matthias Scheffler,
    'Resolution-of-identity approach to Hartree-Fock, hybrid density functionals,
    RPA, MP2, and GW with numeric atom-centered orbital basis functions'
    New Journal of Physics 14, 053020 (2012).
    http://doi.org/10.1088/1367-2630/14/5/053020


  The provided symmetry information was generated with SPGlib:

    Atsushi Togo, Yusuke Seto, Dimitar Pashov
    SPGlib 1.7.3 obtained from http://spglib.sourceforge.net
    Copyright (C) 2008 Atsushi Togo


  For second-variational spin-orbit coupling used in your run, please cite:

    William P. Huhn and Volker Blum,
    'One-hundred-three compound band-structure benchmark of post-self-consistent'
    'spin-orbit coupling treatments in density functional theory'
    Phys. Rev. Materials 1, 033803 (2017).


  The ELSI infrastructure was used in your run to solve the Kohn-Sham electronic structure.
  Please check out http://elsi-interchange.org to learn more.
  If scalability is important for your project, please acknowledge ELSI by citing:

    V. W-z. Yu, F. Corsetti, A. Garcia, W. P. Huhn, M. Jacquelin, W. Jia,
    B. Lange, L. Lin, J. Lu, W. Mi, A. Seifitokaldani, A. Vazquez-Mayagoitia,
    C. Yang, H. Yang, and V. Blum
    'ELSI: A unified software interface for Kohn-Sham electronic structure solvers'
    Computer Physics Communications 222, 267-285 (2018).
    http://doi.org/10.1016/j.cpc.2017.09.007


  For the real-space grid partitioning and parallelization used in this calculation, please cite:

    Ville Havu, Volker Blum, Paula Havu, and Matthias Scheffler,
    'Efficient O(N) integration for all-electron electronic structure calculation'
    'using numerically tabulated basis functions'
    Journal of Computational Physics 228, 8367-8379 (2009).
    http://doi.org/10.1016/j.jcp.2009.08.008


  The high-level electronic structure method used in your calculation
  employed our efficient localized resolution of identity for the Coulomb operator.
  Some calculations, especially large-scale hybrid density functional theory,
  are only possible thanks to this development. For this feature, please cite:

    Arvid Ihrig, Juergen Wieferink, Igor Ying Zhang, Matti Ropo, Xinguo Ren,
    Patrick Rinke, Matthias Scheffler, and Volker Blum,
    'Accurate localized resolution of identity approach for linear-scaling
    hybrid density functionals and for many-body perturbation theory'
    New Journal of Physics 117, 093020 (2015).
    http://doi.org/10.1088/1367-2630/17/9/093020

  Of course, there are many other important community references, e.g., those cited in the
  above references. Our list is limited to references that describe implementations in the
  FHI-aims code. The reason is purely practical (length of this list) - please credit others as well.

------------------------------------------------------------
          Leaving FHI-aims.
          Date     :  20220916, Time     :  132134.274

          Computational steps:
          | Number of self-consistency cycles          :           23
          | Number of SCF (re)initializations          :            1
          | Number of relaxation steps                 :            0

          Detailed time accounting                     :  max(cpu_time)    wall_clock(cpu1)
          | Total time                                  :      419.064 s         419.042 s
          | Preparation time                            :        1.483 s           1.483 s
          | Boundary condition initalization            :        0.178 s           0.178 s
          | Grid partitioning                           :        0.051 s           0.051 s
          | Preloading free-atom quantities on grid     :        0.067 s           0.068 s
          | Free-atom superposition energy              :        0.002 s           0.003 s
          | Total time for integrations                 :        2.369 s           2.368 s
          | Product basis setup: Total time             :       42.101 s          42.105 s
          | Total time evaluating exchange matrix       :      360.820 s         360.829 s
          | Total time for solution of K.-S. equations  :        0.442 s           0.445 s
          | Total time for EV reorthonormalization      :        0.000 s           0.000 s
          | Total time for density & force components   :        8.210 s           8.202 s
          | Total time for mixing                       :        0.032 s           0.025 s
          | Total time for Hartree multipole update     :        0.052 s           0.054 s
          | Total time for Hartree multipole sum        :        1.505 s           1.506 s
          | Total time for total energy evaluation      :        0.023 s           0.044 s
          | Total time NSC force correction             :        0.254 s           0.253 s
          | Total time for scaled ZORA corrections      :        0.000 s           0.000 s
          | Total time for vdW correction               :        0.648 s           0.669 s
          | Total time for perturbative SOC             :        0.463 s           0.464 s

          Partial memory accounting:
          | Residual value for overall tracked memory usage across tasks:     0.000000 MB (should be 0.000000 MB)
          | Peak values for overall tracked memory usage:
          |   Minimum:       50.976 MB (on task  34 after allocating d_wave)
          |   Maximum:       96.202 MB (on task 128 after allocating d_wave)
          |   Average:       74.650 MB
          | Largest tracked array allocation:
          |   Minimum:        8.798 MB (d_aux_mat on task   3)
          |   Maximum:       26.395 MB (d_aux_mat on task  19)
          |   Average:       16.386 MB
          Note:  These values currently only include a subset of arrays which are explicitly tracked.
          The "true" memory usage will be greater.

          Have a nice day.
------------------------------------------------------------
