------------------------------------------------------------
          Invoking FHI-aims ...

          When using FHI-aims, please cite the following reference:

            Volker Blum, Ralf Gehrke, Felix Hanke, Paula Havu,
            Ville Havu, Xinguo Ren, Karsten Reuter, and Matthias Scheffler,
            'Ab Initio Molecular Simulations with Numeric Atom-Centered Orbitals',
            Computer Physics Communications 180, 2175-2196 (2009)

          In addition, many other developments in FHI-aims are likely important for
          your particular application. A partial list of references is given at the end of
          this file. Thank you for giving credit to the authors of these developments.

          For any questions about FHI-aims, please visit our slack channel at

            https://fhi-aims.slack.com

          and our main development and support site at

            https://aims-git.rz-berlin.mpg.de .

          The latter site, in particular, has a wiki to collect information, as well
          as an issue tracker to log discussions, suggest improvements, and report issues
          or bugs. https://aims-git.rz-berlin.mpg.de is also the main development site
          of the project and all new and updated code versions can be obtained there.
          Please send an email to aims-coordinators@fhi-berlin.mpg.de and we will add
          you to these sites. They are for you and everyone is welcome there.

------------------------------------------------------------



  Date     :  20220913, Time     :  190048.106
  Time zero on CPU 1             :   0.318016400000000E+01  s.
  Internal wall clock time zero  :           432327648.106  s.

  FHI-aims created a unique identifier for this run for later identification
  aims_uuid : E01C0243-8302-4967-AEB1-4DB7500E64B7

  Build configuration of the current instance of FHI-aims
  -------------------------------------------------------
  FHI-aims version      : 220117
  Commit number         : 0c0e6afe2
  CMake host system     : Linux-5.3.18-24.99-default
  CMake version         : 3.22.0
  Fortran compiler      : /mpcdf/soft/SLE_15/packages/x86_64/intel_oneapi/2021.4/mpi/2021.4.0/bin/mpiifort (Intel) version 2021.4.0.20210910
  Fortran compiler flags: -O3 -ip -fp-model precise
  C compiler            : /mpcdf/soft/SLE_15/packages/x86_64/intel/2021.4.0/bin/icc (Intel) version 2021.4.0.20210910
  C compiler flags      : -O3 -ip -fp-model precise
  C++ compiler          : /mpcdf/soft/SLE_15/packages/x86_64/intel/2021.4.0/bin/icpc (Intel) version 2021.4.0.20210910
  C++ compiler flags    : -O3 -ip -fp-model precise
  Using MPI
  Using ScaLAPACK
  Using LibXC
  Using i-PI
  Using RLSY
  Linking against: /mpcdf/soft/SLE_15/packages/x86_64/intel_oneapi/2021.4/mkl/latest/lib/intel64/libmkl_intel_lp64.so
                   /mpcdf/soft/SLE_15/packages/x86_64/intel_oneapi/2021.4/mkl/latest/lib/intel64/libmkl_sequential.so
                   /mpcdf/soft/SLE_15/packages/x86_64/intel_oneapi/2021.4/mkl/latest/lib/intel64/libmkl_core.so
                   /mpcdf/soft/SLE_15/packages/x86_64/intel_oneapi/2021.4/mkl/latest/lib/intel64/libmkl_blacs_intelmpi_lp64.so
                   /mpcdf/soft/SLE_15/packages/x86_64/intel_oneapi/2021.4/mkl/latest/lib/intel64/libmkl_scalapack_lp64.so

  Using      216 parallel tasks.
  Task        0 on host ravg1002 reporting.
  Task        1 on host ravg1002 reporting.
  Task        2 on host ravg1002 reporting.
  Task        3 on host ravg1002 reporting.
  Task        4 on host ravg1002 reporting.
  Task        5 on host ravg1002 reporting.
  Task        6 on host ravg1002 reporting.
  Task        7 on host ravg1002 reporting.
  Task        8 on host ravg1002 reporting.
  Task        9 on host ravg1002 reporting.
  Task       10 on host ravg1002 reporting.
  Task       11 on host ravg1002 reporting.
  Task       12 on host ravg1002 reporting.
  Task       13 on host ravg1002 reporting.
  Task       14 on host ravg1002 reporting.
  Task       15 on host ravg1002 reporting.
  Task       16 on host ravg1002 reporting.
  Task       17 on host ravg1002 reporting.
  Task       18 on host ravg1002 reporting.
  Task       19 on host ravg1002 reporting.
  Task       20 on host ravg1002 reporting.
  Task       21 on host ravg1002 reporting.
  Task       22 on host ravg1002 reporting.
  Task       23 on host ravg1002 reporting.
  Task       24 on host ravg1002 reporting.
  Task       25 on host ravg1002 reporting.
  Task       26 on host ravg1002 reporting.
  Task       27 on host ravg1002 reporting.
  Task       28 on host ravg1002 reporting.
  Task       29 on host ravg1002 reporting.
  Task       30 on host ravg1002 reporting.
  Task       31 on host ravg1002 reporting.
  Task       32 on host ravg1002 reporting.
  Task       33 on host ravg1002 reporting.
  Task       34 on host ravg1002 reporting.
  Task       35 on host ravg1002 reporting.
  Task       36 on host ravg1002 reporting.
  Task       37 on host ravg1002 reporting.
  Task       38 on host ravg1002 reporting.
  Task       39 on host ravg1002 reporting.
  Task       40 on host ravg1002 reporting.
  Task       41 on host ravg1002 reporting.
  Task       42 on host ravg1002 reporting.
  Task       43 on host ravg1002 reporting.
  Task       44 on host ravg1002 reporting.
  Task       45 on host ravg1002 reporting.
  Task       46 on host ravg1002 reporting.
  Task       47 on host ravg1002 reporting.
  Task       48 on host ravg1002 reporting.
  Task       49 on host ravg1002 reporting.
  Task       50 on host ravg1002 reporting.
  Task       51 on host ravg1002 reporting.
  Task       52 on host ravg1002 reporting.
  Task       53 on host ravg1002 reporting.
  Task       54 on host ravg1002 reporting.
  Task       55 on host ravg1002 reporting.
  Task       56 on host ravg1002 reporting.
  Task       57 on host ravg1002 reporting.
  Task       58 on host ravg1002 reporting.
  Task       59 on host ravg1002 reporting.
  Task       60 on host ravg1002 reporting.
  Task       61 on host ravg1002 reporting.
  Task       62 on host ravg1002 reporting.
  Task       63 on host ravg1002 reporting.
  Task       64 on host ravg1002 reporting.
  Task       65 on host ravg1002 reporting.
  Task       66 on host ravg1002 reporting.
  Task       67 on host ravg1002 reporting.
  Task       68 on host ravg1002 reporting.
  Task       69 on host ravg1002 reporting.
  Task       70 on host ravg1002 reporting.
  Task       71 on host ravg1002 reporting.
  Task       72 on host ravg1003 reporting.
  Task       73 on host ravg1003 reporting.
  Task       74 on host ravg1003 reporting.
  Task       75 on host ravg1003 reporting.
  Task       76 on host ravg1003 reporting.
  Task       77 on host ravg1003 reporting.
  Task       78 on host ravg1003 reporting.
  Task       79 on host ravg1003 reporting.
  Task       80 on host ravg1003 reporting.
  Task       81 on host ravg1003 reporting.
  Task       82 on host ravg1003 reporting.
  Task       83 on host ravg1003 reporting.
  Task       84 on host ravg1003 reporting.
  Task       85 on host ravg1003 reporting.
  Task       86 on host ravg1003 reporting.
  Task       87 on host ravg1003 reporting.
  Task       88 on host ravg1003 reporting.
  Task       89 on host ravg1003 reporting.
  Task       90 on host ravg1003 reporting.
  Task       91 on host ravg1003 reporting.
  Task       92 on host ravg1003 reporting.
  Task       93 on host ravg1003 reporting.
  Task       94 on host ravg1003 reporting.
  Task       95 on host ravg1003 reporting.
  Task       96 on host ravg1003 reporting.
  Task       97 on host ravg1003 reporting.
  Task       98 on host ravg1003 reporting.
  Task       99 on host ravg1003 reporting.
  Task      100 on host ravg1003 reporting.
  Task      101 on host ravg1003 reporting.
  Task      102 on host ravg1003 reporting.
  Task      103 on host ravg1003 reporting.
  Task      104 on host ravg1003 reporting.
  Task      105 on host ravg1003 reporting.
  Task      106 on host ravg1003 reporting.
  Task      107 on host ravg1003 reporting.
  Task      108 on host ravg1003 reporting.
  Task      109 on host ravg1003 reporting.
  Task      110 on host ravg1003 reporting.
  Task      111 on host ravg1003 reporting.
  Task      112 on host ravg1003 reporting.
  Task      113 on host ravg1003 reporting.
  Task      114 on host ravg1003 reporting.
  Task      115 on host ravg1003 reporting.
  Task      116 on host ravg1003 reporting.
  Task      117 on host ravg1003 reporting.
  Task      118 on host ravg1003 reporting.
  Task      119 on host ravg1003 reporting.
  Task      120 on host ravg1003 reporting.
  Task      121 on host ravg1003 reporting.
  Task      122 on host ravg1003 reporting.
  Task      123 on host ravg1003 reporting.
  Task      124 on host ravg1003 reporting.
  Task      125 on host ravg1003 reporting.
  Task      126 on host ravg1003 reporting.
  Task      127 on host ravg1003 reporting.
  Task      128 on host ravg1003 reporting.
  Task      129 on host ravg1003 reporting.
  Task      130 on host ravg1003 reporting.
  Task      131 on host ravg1003 reporting.
  Task      132 on host ravg1003 reporting.
  Task      133 on host ravg1003 reporting.
  Task      134 on host ravg1003 reporting.
  Task      135 on host ravg1003 reporting.
  Task      136 on host ravg1003 reporting.
  Task      137 on host ravg1003 reporting.
  Task      138 on host ravg1003 reporting.
  Task      139 on host ravg1003 reporting.
  Task      140 on host ravg1003 reporting.
  Task      141 on host ravg1003 reporting.
  Task      142 on host ravg1003 reporting.
  Task      143 on host ravg1003 reporting.
  Task      144 on host ravg1005 reporting.
  Task      145 on host ravg1005 reporting.
  Task      146 on host ravg1005 reporting.
  Task      147 on host ravg1005 reporting.
  Task      148 on host ravg1005 reporting.
  Task      149 on host ravg1005 reporting.
  Task      150 on host ravg1005 reporting.
  Task      151 on host ravg1005 reporting.
  Task      152 on host ravg1005 reporting.
  Task      153 on host ravg1005 reporting.
  Task      154 on host ravg1005 reporting.
  Task      155 on host ravg1005 reporting.
  Task      156 on host ravg1005 reporting.
  Task      157 on host ravg1005 reporting.
  Task      158 on host ravg1005 reporting.
  Task      159 on host ravg1005 reporting.
  Task      160 on host ravg1005 reporting.
  Task      161 on host ravg1005 reporting.
  Task      162 on host ravg1005 reporting.
  Task      163 on host ravg1005 reporting.
  Task      164 on host ravg1005 reporting.
  Task      165 on host ravg1005 reporting.
  Task      166 on host ravg1005 reporting.
  Task      167 on host ravg1005 reporting.
  Task      168 on host ravg1005 reporting.
  Task      169 on host ravg1005 reporting.
  Task      170 on host ravg1005 reporting.
  Task      171 on host ravg1005 reporting.
  Task      172 on host ravg1005 reporting.
  Task      173 on host ravg1005 reporting.
  Task      174 on host ravg1005 reporting.
  Task      175 on host ravg1005 reporting.
  Task      176 on host ravg1005 reporting.
  Task      177 on host ravg1005 reporting.
  Task      178 on host ravg1005 reporting.
  Task      179 on host ravg1005 reporting.
  Task      180 on host ravg1005 reporting.
  Task      181 on host ravg1005 reporting.
  Task      182 on host ravg1005 reporting.
  Task      183 on host ravg1005 reporting.
  Task      184 on host ravg1005 reporting.
  Task      185 on host ravg1005 reporting.
  Task      186 on host ravg1005 reporting.
  Task      187 on host ravg1005 reporting.
  Task      188 on host ravg1005 reporting.
  Task      189 on host ravg1005 reporting.
  Task      190 on host ravg1005 reporting.
  Task      191 on host ravg1005 reporting.
  Task      192 on host ravg1005 reporting.
  Task      193 on host ravg1005 reporting.
  Task      194 on host ravg1005 reporting.
  Task      195 on host ravg1005 reporting.
  Task      196 on host ravg1005 reporting.
  Task      197 on host ravg1005 reporting.
  Task      198 on host ravg1005 reporting.
  Task      199 on host ravg1005 reporting.
  Task      200 on host ravg1005 reporting.
  Task      201 on host ravg1005 reporting.
  Task      202 on host ravg1005 reporting.
  Task      203 on host ravg1005 reporting.
  Task      204 on host ravg1005 reporting.
  Task      205 on host ravg1005 reporting.
  Task      206 on host ravg1005 reporting.
  Task      207 on host ravg1005 reporting.
  Task      208 on host ravg1005 reporting.
  Task      209 on host ravg1005 reporting.
  Task      210 on host ravg1005 reporting.
  Task      211 on host ravg1005 reporting.
  Task      212 on host ravg1005 reporting.
  Task      213 on host ravg1005 reporting.
  Task      214 on host ravg1005 reporting.
  Task      215 on host ravg1005 reporting.

  Performing system and environment tests:
  | Environment variable OMP_NUM_THREADS correctly set to 1.
  | Checking for ScaLAPACK...
  | Testing pdtran()...
  | All pdtran() tests passed.

  Obtaining array dimensions for all initial allocations:
  
  -----------------------------------------------------------------------
  Parsing control.in (first pass over file, find array dimensions only).
  The contents of control.in will be repeated verbatim below
  unless switched off by setting 'verbatim_writeout .false.' .
  in the first line of control.in .
  -----------------------------------------------------------------------
  
    ##### Physical settings  ################
    xc                 pbe
    spin               collinear
    default_initial_moment 1
    charge      0.0
    relativistic       atomic_zora scalar
    #elsi_restart read
    # SCF settings
    use_symmetric_forces .true.
    relax_geometry trm 1E-3
  
    # k-grid settings  (to be adjusted)
    k_grid  4 4 1
  include_spin_orbit non_self_consistent
   sc_accuracy_rho    1E-4
      sc_accuracy_eev    1E-3
      sc_accuracy_etot   1E-4
      sc_accuracy_forces 1E-3
    #empty_states 8
    use_dipole_correction
    many_body_dispersion_nl    beta=0.81
  ################################################################################
  #
  #  FHI-aims code project
  # Volker Blum, Fritz Haber Institute Berlin, 2009
  #
  #  Suggested "tight" defaults for S atom (to be pasted into control.in file)
  #
  #  Revised Jan 04, 2011, following tests (SiC) done by Lydia Nemec:
  #     d and g functions of tier 2 now enabled by default.
  #
  ################################################################################
    species        S
  #     global species definitions
      nucleus             16
      mass                32.065
  #
      l_hartree           6
  #
      cut_pot             4.0          2.0  1.0
      basis_dep_cutoff    1e-4
  #
      radial_base         44 7.0
      radial_multiplier   2
      angular_grids       specified
        division   0.4665  110
        division   0.5810  194
        division   0.7139  302
        division   0.8274  434
  #      division   0.9105  590
  #      division   1.0975  770
  #      division   1.2028  974
  #      outer_grid  974
        outer_grid  434
  ################################################################################
  #
  #  Definition of "minimal" basis
  #
  ################################################################################
  #     valence basis states
      valence      3  s   2.
      valence      3  p   4.
  #     ion occupancy
      ion_occ      3  s   1.
      ion_occ      3  p   3.
  ################################################################################
  #
  #  Suggested additional basis functions. For production calculations,
  #  uncomment them one after another (the most important basis functions are
  #  listed first).
  #
  #  Constructed for dimers: 1.6 A, 1.9 A, 2.5 A, 3.25 A, 4.0 A
  #
  ################################################################################
  #  "First tier" - improvements: -652.81 meV to -45.53 meV
       ionic 3 d auto
       hydro 2 p 1.8
       hydro 4 f 7
       ionic 3 s auto
  #  "Second tier" - improvements: -30.20 meV to -1.74 meV
       hydro 4 d 6.2
       hydro 5 g 10.8
  #     hydro 4 p 4.9
  #     hydro 5 f 10
  #     hydro 1 s 0.8
  #  "Third tier" - improvements: -1.04 meV to -0.20 meV
  #     hydro 3 d 3.9
  #     hydro 3 d 2.7
  #     hydro 5 g 12
  #     hydro 4 p 10.4
  #     hydro 5 f 12.4
  #     hydro 2 s 1.9
  #  "Fourth tier" - improvements: -0.35 meV to -0.06 meV
  #     hydro 4 d 10.4
  #     hydro 4 p 7.2
  #     hydro 4 d 10
  #     hydro 5 g 19.2
  #     hydro 4 s 12
  
  ################################################################################
  #
  # For methods that use the localized form of the "resolution of identity" for
  # the two-electron Coulomb operator (RI_method LVL), particularly Hartree-Fock and
  # hybrid density functional calculations, the highest accuracy can be obtained by
  # uncommenting the line beginning with "for_aux"  below, thus adding an extra g radial
  # function to the construction of the product basis set for the expansion.
  # See Ref. New J. Phys. 17, 093020 (2015) for more information, particularly Figs. 1 and 6.
  #
  ################################################################################
  #
  # for_aux hydro 5 g 6.0
  ################################################################################
  #
  #  FHI-aims code project
  # Volker Blum, Fritz Haber Institute Berlin, 2009
  #
  #  Suggested "tight" defaults for Mo atom (to be pasted into control.in file)
  #
  ################################################################################
    species        Mo
  #     global species definitions
      nucleus             42
      mass                95.94
  #
      l_hartree           6
  #
      cut_pot             4.0  2.0  1.0
      basis_dep_cutoff    1e-4
  #
      radial_base         59 7.0
      radial_multiplier   2
      angular_grids specified
        division   0.3117   50
        division   0.6750  110
        division   1.0351  194
        division   1.2073  302
        division   1.6402  434
  #      division   1.9185  590
  #      division   2.0237  770
  #      division   2.0980  974
  #      division   2.7972 1202
  #      outer_grid  974
        outer_grid  434
  ################################################################################
  #
  #  Definition of "minimal" basis
  #
  ################################################################################
  #     valence basis states
      valence      5  s   1.
      valence      4  p   6.
      valence      4  d   5.
  #     ion occupancy
      ion_occ     5  s   0.
      ion_occ     4  p   6.
      ion_occ     4  d   4.
  ################################################################################
  #
  #  Suggested additional basis functions. For production calculations,
  #  uncomment them one after another (the most important basis functions are
  #  listed first).
  #
  #  Constructed for dimers: 1.675 A, 1.9 A, 2.375 A, 3.00 A, 4.00 A
  #
  ################################################################################
  #  "First tier"  - max. impr. -711.23  meV, min. impr. -21.07 meV
       hydro 4 f 8.4
       hydro 3 d 2.8
       ionic 5 p auto
       hydro 5 g 12
       ionic 5 s auto
  #  "Second tier" - max. impr. -39.38  meV, min. impr. -2.68 meV
  #     hydro 4 f 12.4
  #     hydro 3 d 3.3
  #     hydro 6 h 17.2
  #     hydro 4 f 7.6
  #     hydro 3 p 3.0
  #     hydro 1 s 0.65
  #  "Third tier"  - max. impr. -5.50 meV, min. impr. -0.47 meV
  #     hydro 4 f 29.2
  #     hydro 5 g 11.2
  #     hydro 3 d 6.8
  #     hydro 6 h 14.8
  #     hydro 2 p 2.3
  #     hydro 4 s 3.8
  #  "Fourth tier"  - max. impr. -0.58 meV, min. impr. -0.19 meV
  #     hydro 5 f 6.8
  #     hydro 5 d 14.8
  #     hydro 6 s 7.8
  #     hydro 5 g 20.8
  #     hydro 5 d 10.4
  #     hydro 5 p 9.8
  #  Further functions - -0.17 meV and below
  #     hydro 5 d 3.2
  ################################################################################
  #
  #  FHI-aims code project
  # Volker Blum, Fritz Haber Institute Berlin, 2009
  #
  #  Suggested "tight" defaults for W atom (to be pasted into control.in file)
  #
  ################################################################################
    species          W
  #     global species definitions
      nucleus        74
      mass           183.84
  #
      l_hartree      6
  #
      cut_pot        4.0  2.0  1.0
      basis_dep_cutoff    1e-4
  #
      radial_base    71  7.0
      radial_multiplier  2
      angular_grids specified
        division   0.2901   50
        division   0.6986  110
        division   1.0528  194
        division   1.2659  302
        division   1.5223  434
  #      division   1.8111  590
  #      division   2.0105  770
  #      division   2.0413  974
  #      division   2.8804 1202
  #      outer_grid  974
        outer_grid  434
  ################################################################################
  #
  #  Definition of "minimal" basis
  #
  ################################################################################
  #     valence basis states
      valence      6  s   2.
      valence      5  p   6.
      valence      5  d   4.
      valence      4  f  14.
  #     ion occupancy
      ion_occ      6  s   1.
      ion_occ      5  p   6.
      ion_occ      5  d   3.
      ion_occ      4  f  14.
  ################################################################################
  #
  #  Suggested additional basis functions. For production calculations,
  #  uncomment them one after another (the most important basis functions are
  #  listed first).
  #
  #  Constructed for dimers: 1.775, 1.99, 2.50, 3.25, 4.50 AA
  #
  ################################################################################
  #
  #  "First tier" - improvements: -603.77 meV to -28.99 meV
       hydro 4 f 7.8
       hydro 4 d 5.8
       ionic 6 p auto
       hydro 5 g 12.4
       ionic 6 s auto
  #  "Second tier" - improvements: -28.30 meV to -1.31 meV
  #     hydro 6 h 16.8
  #     ionic 5 d auto
  #     hydro 4 f 8.6
  #     hydro 5 g 16.8
  #     hydro 5 d 8.4
  #     hydro 3 p 3.3
  #     hydro 1 s 0.55
  #  "Third tier" - max. impr. -1.79 meV, min. impr. -0.26 meV
  #     hydro 5 f 10.8
  #     hydro 5 g 34.4
  #     hydro 6 h 20.8
  #     hydro 5 g 12.8
  #     hydro 2 p 1.6
  #     hydro 4 s 4.7
  #     hydro 6 d 18.4
  #  "Fourth tier" -0.46 max. impr. - meV, min. impr. -0.09 meV
  #     hydro 6 h 21.6
  #     hydro 5 f 22.4
  #     hydro 4 f 4
  #     hydro 5 p 9.6
  #     hydro 6 d 17.2
  #     hydro 3 p 5.2
  #     hydro 5 g 4.7
  #     hydro 6 s 7.6
  ################################################################################
  #
  #  FHI-aims code project
  # Volker Blum, Fritz Haber Institute Berlin, 2009
  #
  #  Suggested "tight" defaults for Se atom (to be pasted into control.in file)
  #
  ################################################################################
    species        Se
  #     global species definitions
      nucleus             34
      mass                78.96
  #
      l_hartree           6
  #
      cut_pot             4.0          2.0  1.0
      basis_dep_cutoff    1e-4
  #
      radial_base         55 7.0
      radial_multiplier   2
      angular_grids       specified
        division   0.0830  110
        division   0.1357  194
        division   0.7377  302
        division   0.8610  434
  #      division   0.9640  590
  #      division   1.0773  770
  #      division   2.5539  974
  #      outer_grid  974
        outer_grid  434
  ################################################################################
  #
  #  Definition of "minimal" basis
  #
  ################################################################################
  #     valence basis states
      valence      4  s   2.
      valence      4  p   4.
      valence      3  d  10.
  #     ion occupancy
      ion_occ      4  s   1.
      ion_occ      4  p   3.
      ion_occ      3  d  10.
  ################################################################################
  #
  #  Suggested additional basis functions. For production calculations,
  #  uncomment them one after another (the most important basis functions are
  #  listed first).
  #
  #  Constructed for dimers: 1.85 A, 2.15 A, 2.50 A, 3.00 A, 4.00 A
  #
  ################################################################################
  #  "First tier" - improvements: -336.21 meV to -36.85 meV
       hydro 3 d 4.3
       hydro 2 p 1.6
       hydro 4 f 7.2
       ionic 4 s auto
  #  "Second tier" - improvements: -14.39 meV to -1.49 meV
  #     hydro 5 g 10.4
  #     hydro 4 p 4.5
  #     hydro 4 d 6.2
  #     hydro 4 f 11.2
  #     hydro 1 s 0.65
  #     hydro 6 h 15.2
  #  "Third tier" - improvements: -0.46 meV and below
  #     hydro 5 g 14.4
  #     ionic 4 d auto
  #     hydro 4 f 22.4
  #     hydro 5 f 7.4
  #     hydro 5 p 8
  #     hydro 5 s 9.4
  #  "Fourth tier" - improvements: -0.12 meV and below
  #     hydro 5 d 11.6
  #     hydro 6 h 18
  #     hydro 4 p 4
  #     hydro 5 f 16
  #     hydro 4 s 3.9
  
  
  
  -----------------------------------------------------------------------
  Completed first pass over input file control.in .
  -----------------------------------------------------------------------
  
  
  -----------------------------------------------------------------------
  Parsing geometry.in (first pass over file, find array dimensions only).
  The contents of geometry.in will be repeated verbatim below
  unless switched off by setting 'verbatim_writeout .false.' .
  in the first line of geometry.in .
  -----------------------------------------------------------------------
  
  #
  # This is the geometry file that corresponds to the current relaxation step.
  # If you do not want this file to be written, set the "write_restart_geometry" flag to .false.
  #  aims_uuid : 0AE211D3-C6A6-4CCE-A02C-CDF3B3BE73E1
  #
    set_vacuum_level        52.483745
  lattice_vector     16.44347560      0.00000000      0.00000000
  lattice_vector     -8.22357185     14.23911350      0.00000000
  lattice_vector      0.00000000      0.00000000     99.63748923
  atom       0.03503628      1.00440428      2.66500000 W
  atom       1.68117912      1.94650120      4.35271493 Se
  atom       1.68117912      1.94650120      0.97728507 Se
  atom      -1.59259585      3.87270637      2.66500000 W
  atom       0.06424783      4.82918445      4.34247008 Se
  atom       0.06424783      4.82918445      0.98752992 Se
  atom      -3.26355613      6.71587994      2.66500000 W
  atom      -1.62466785      7.67037097      4.35281222 Se
  atom      -1.62466785      7.67037097      0.97718778 Se
  atom      -4.89155645      9.56406053      2.66500000 W
  atom      -3.25220751     10.51496277      4.35588572 Se
  atom      -3.25220751     10.51496277      0.97411428 Se
  atom      -6.53521087     12.41006128      2.66500000 W
  atom      -4.89192498     13.35415602      4.35588547 Se
  atom      -4.89192498     13.35415602      0.97411453 Se
  atom       3.33141249      1.00651266      2.66500000 W
  atom       4.98148266      1.94641207      4.35278293 Se
  atom       4.98148266      1.94641207      0.97721707 Se
  atom       1.71162979      3.84593880      2.66500000 W
  atom       3.33106129      4.80243285      4.33414045 Se
  atom       3.33106129      4.80243285      0.99585955 Se
  atom       0.03570722      6.74740241      2.66500000 W
  atom       1.67394710      7.67133595      4.33409486 Se
  atom       1.67394710      7.67133595      0.99590514 Se
  atom      -1.61399609      9.56927467      2.66500000 W
  atom       0.02510748     10.52820299      4.35276566 Se
  atom       0.02510748     10.52820299      0.97723434 Se
  atom      -3.24852932     12.41010127      2.66500000 W
  atom      -1.60794296     13.35716146      4.36058873 Se
  atom      -1.60794296     13.35716146      0.96941127 Se
  atom       6.62770446      1.00438808      2.66500000 W
  atom       8.26355404      1.97070668      4.35335469 Se
  atom       8.26355404      1.97070668      0.97664531 Se
  atom       4.95054854      3.84577018      2.66500000 W
  atom       6.59768732      4.82909168      4.34251052 Se
  atom       6.59768732      4.82909168      0.98748948 Se
  atom       4.98708933      7.67113793      4.33407231 Se
  atom       4.98708933      7.67113793      0.99592769 Se
  atom       1.65482613      9.55202627      2.66500000 W
  atom       3.33015035     10.48659285      4.34252281 Se
  atom       3.33015035     10.48659285      0.98747719 Se
  atom       0.03203852     12.42479552      2.66500000 W
  atom       1.68693345     13.35804490      4.35341553 Se
  atom       1.68693345     13.35804490      0.97658447 Se
  atom       9.90895640      1.01937703      2.66500000 W
  atom      11.55305615      1.96855724      4.35352447 Se
  atom      11.55305615      1.96855724      0.97647553 Se
  atom       8.25462693      3.87265829      2.66500000 W
  atom       9.90608378      4.81602053      4.35343437 Se
  atom       9.90608378      4.81602053      0.97656563 Se
  atom       6.62550950      6.74723737      2.66500000 W
  atom       8.28574375      7.67028291      4.35280785 Se
  atom       8.28574375      7.67028291      0.97719215 Se
  atom       5.00548136      9.55187308      2.66500000 W
  atom       6.63511382     10.52809582      4.35272671 Se
  atom       6.63511382     10.52809582      0.97727329 Se
  atom       3.32984586     12.39964191      2.66500000 W
  atom       4.97269533     13.35805356      4.35337849 Se
  atom       4.97269533     13.35805356      0.97662151 Se
  atom      13.19727861      1.01942896      2.66500000 W
  atom      14.84255686      1.97075442      4.35336916 Se
  atom      14.84255686      1.97075442      0.97663084 Se
  atom      11.55274420      3.86700589      2.66500000 W
  atom      13.19930004      4.81605409      4.35341973 Se
  atom      13.19930004      4.81605409      0.97658027 Se
  atom       9.92477724      6.71579925      2.66500000 W
  atom      11.55228406      7.66968419      4.36054551 Se
  atom      11.55228406      7.66968419      0.96945449 Se
  atom       8.27443678      9.56918700      2.66500000 W
  atom       9.91250016     10.51492052      4.35593586 Se
  atom       9.91250016     10.51492052      0.97406414 Se
  atom       6.62770960     12.42474586      2.66500000 W
  atom       8.26755681     13.35715444      4.36059285 Se
  atom       8.26755681     13.35715444      0.96940715 Se
  #
  # What follows is the current estimated Hessian matrix constructed by the BFGS algorithm.
  # This is NOT the true Hessian matrix of the system.
  # If you do not want this information here, switch it off using the "hessian_to_restart_geometry" keyword.
  #
  trust_radius             0.0005929642
  hessian_file
  
  -----------------------------------------------------------------------
  Completed first pass over input file geometry.in .
  -----------------------------------------------------------------------
  

  Basic array size parameters:
  | Number of species                 :        4
  | Number of atoms                   :       74
  | Number of lattice vectors         :        3
  | Max. basis fn. angular momentum   :        4
  | Max. atomic/ionic basis occupied n:        6
  | Max. number of basis fn. types    :        3
  | Max. radial fns per species/type  :       14
  | Max. logarithmic grid size        :     1483
  | Max. radial integration grid size :      143
  | Max. angular integration grid size:      434
  | Max. angular grid division number :        8
  | Radial grid for Hartree potential :     1483
  | Number of spin channels           :        2

------------------------------------------------------------
          Reading file control.in.
------------------------------------------------------------
  XC: Using PBE gradient-corrected functionals.
  Spin treatment: Spin density functional theory - collinear spins.
  Initial spin moment per atom:   1.0000
  Charge =   0.000000E+00: Neutral system requested explicitly.
  Scalar relativistic treatment of kinetic energy: on-site free-atom approximation to ZORA.
  Geometry relaxation: Modified BFGS - TRM (trust radius method) for lattice optimization.
  Convergence accuracy for geometry relaxation: Maximum force <   0.100000E-02 eV/A.
  Found k-point grid:         4         4         1
  Calculating non-self-consistent second-variational spin-orbit coupling after scf-cycle
  You have request a SOC run with spin-polarization.
  symmetry_reduced_k_grid will be turned off.
  Convergence accuracy of self-consistent charge density:  0.1000E-03
  Convergence accuracy of sum of eigenvalues:  0.1000E-02
  Convergence accuracy of total energy:  0.1000E-03
  Convergence accuracy of forces:  0.1000E-02
  Using dipole correction.
  Using libMBD for calculating MBD and TS energies
 
  Reading configuration options for species S                   .
  | Found nuclear charge :  16.0000
  | Found atomic mass :    32.0650000000000      amu
  | Found l_max for Hartree potential  :   6
  | Found cutoff potl. onset [A], width [A], scale factor :    4.00000    2.00000    1.00000
  | Threshold for basis-dependent cutoff potential is   0.100000E-03
  | Found data for basic radial integration grid :    44 points, outermost radius =    7.000 A
  | Found multiplier for basic radial grid :   2
  | Found angular grid specification: user-specified.
  | Specified grid contains     5 separate shells.
  | Check grid settings after all constraints further below.
  | Found free-atom valence shell :  3 s   2.000
  | Found free-atom valence shell :  3 p   4.000
  | Found free-ion valence shell :  3 s   1.000
  | Found free-ion valence shell :  3 p   3.000
  | Found ionic basis function :  3 d , default cutoff radius.
  | Found hydrogenic basis function :  2 p   1.800
  | Found hydrogenic basis function :  4 f   7.000
  | Found ionic basis function :  3 s , default cutoff radius.
  | Found hydrogenic basis function :  4 d   6.200
  | Found hydrogenic basis function :  5 g  10.800
  Species S                   : Missing cutoff potential type.
  Defaulting to exp(1/x)/(1-x)^2 type cutoff potential.
  Species S : No 'logarithmic' tag. Using default grid for free atom:
  | Default logarithmic grid data [bohr] : 0.1000E-03 0.1000E+03 0.1012E+01
  | Will include ionic basis functions of  2.0-fold positive S                    ion.
  Species S : On-site basis accuracy parameter (for Gram-Schmidt orthonormalisation) not specified.
  Using default value basis_acc =  0.1000000E-03.
  Species S                   : Using default innermost maximum threshold i_radial=  2 for radial functions.
  Species S                   : Default cutoff onset for free atom density etc. : 0.40000000E+01 AA.
  Species S                   : Basic radial grid will be enhanced according to radial_multiplier =   2, to contain    89 grid points.
 
  Reading configuration options for species Mo                  .
  | Found nuclear charge :  42.0000
  | Found atomic mass :    95.9400000000000      amu
  | Found l_max for Hartree potential  :   6
  | Found cutoff potl. onset [A], width [A], scale factor :    4.00000    2.00000    1.00000
  | Threshold for basis-dependent cutoff potential is   0.100000E-03
  | Found data for basic radial integration grid :    59 points, outermost radius =    7.000 A
  | Found multiplier for basic radial grid :   2
  | Found angular grid specification: user-specified.
  | Specified grid contains     6 separate shells.
  | Check grid settings after all constraints further below.
  | Found free-atom valence shell :  5 s   1.000
  | Found free-atom valence shell :  4 p   6.000
  | Found free-atom valence shell :  4 d   5.000
  | Found free-ion valence shell :  5 s   0.000
  | Found free-ion valence shell :  4 p   6.000
  | Found free-ion valence shell :  4 d   4.000
  | Found hydrogenic basis function :  4 f   8.400
  | Found hydrogenic basis function :  3 d   2.800
  | Found ionic basis function :  5 p , default cutoff radius.
  | Found hydrogenic basis function :  5 g  12.000
  | Found ionic basis function :  5 s , default cutoff radius.
  Species Mo                  : Missing cutoff potential type.
  Defaulting to exp(1/x)/(1-x)^2 type cutoff potential.
  Species Mo: No 'logarithmic' tag. Using default grid for free atom:
  | Default logarithmic grid data [bohr] : 0.1000E-03 0.1000E+03 0.1012E+01
  | Will include ionic basis functions of  2.0-fold positive Mo                   ion.
  Species Mo: On-site basis accuracy parameter (for Gram-Schmidt orthonormalisation) not specified.
  Using default value basis_acc =  0.1000000E-03.
  Species Mo                  : Using default innermost maximum threshold i_radial=  2 for radial functions.
  Species Mo                  : Default cutoff onset for free atom density etc. : 0.40000000E+01 AA.
  Species Mo                  : Basic radial grid will be enhanced according to radial_multiplier =   2, to contain   119 grid points.
 
  Reading configuration options for species W                   .
  | Found nuclear charge :  74.0000
  | Found atomic mass :    183.840000000000      amu
  | Found l_max for Hartree potential  :   6
  | Found cutoff potl. onset [A], width [A], scale factor :    4.00000    2.00000    1.00000
  | Threshold for basis-dependent cutoff potential is   0.100000E-03
  | Found data for basic radial integration grid :    71 points, outermost radius =    7.000 A
  | Found multiplier for basic radial grid :   2
  | Found angular grid specification: user-specified.
  | Specified grid contains     6 separate shells.
  | Check grid settings after all constraints further below.
  | Found free-atom valence shell :  6 s   2.000
  | Found free-atom valence shell :  5 p   6.000
  | Found free-atom valence shell :  5 d   4.000
  | Found free-atom valence shell :  4 f  14.000
  | Found free-ion valence shell :  6 s   1.000
  | Found free-ion valence shell :  5 p   6.000
  | Found free-ion valence shell :  5 d   3.000
  | Found free-ion valence shell :  4 f  14.000
  | Found hydrogenic basis function :  4 f   7.800
  | Found hydrogenic basis function :  4 d   5.800
  | Found ionic basis function :  6 p , default cutoff radius.
  | Found hydrogenic basis function :  5 g  12.400
  | Found ionic basis function :  6 s , default cutoff radius.
  Species W                   : Missing cutoff potential type.
  Defaulting to exp(1/x)/(1-x)^2 type cutoff potential.
  Species W : No 'logarithmic' tag. Using default grid for free atom:
  | Default logarithmic grid data [bohr] : 0.1000E-03 0.1000E+03 0.1012E+01
  | Will include ionic basis functions of  2.0-fold positive W                    ion.
  Species W : On-site basis accuracy parameter (for Gram-Schmidt orthonormalisation) not specified.
  Using default value basis_acc =  0.1000000E-03.
  Species W                   : Using default innermost maximum threshold i_radial=  2 for radial functions.
  Species W                   : Default cutoff onset for free atom density etc. : 0.40000000E+01 AA.
  Species W                   : Basic radial grid will be enhanced according to radial_multiplier =   2, to contain   143 grid points.
 
  Reading configuration options for species Se                  .
  | Found nuclear charge :  34.0000
  | Found atomic mass :    78.9600000000000      amu
  | Found l_max for Hartree potential  :   6
  | Found cutoff potl. onset [A], width [A], scale factor :    4.00000    2.00000    1.00000
  | Threshold for basis-dependent cutoff potential is   0.100000E-03
  | Found data for basic radial integration grid :    55 points, outermost radius =    7.000 A
  | Found multiplier for basic radial grid :   2
  | Found angular grid specification: user-specified.
  | Specified grid contains     5 separate shells.
  | Check grid settings after all constraints further below.
  | Found free-atom valence shell :  4 s   2.000
  | Found free-atom valence shell :  4 p   4.000
  | Found free-atom valence shell :  3 d  10.000
  | Found free-ion valence shell :  4 s   1.000
  | Found free-ion valence shell :  4 p   3.000
  | Found free-ion valence shell :  3 d  10.000
  | Found hydrogenic basis function :  3 d   4.300
  | Found hydrogenic basis function :  2 p   1.600
  | Found hydrogenic basis function :  4 f   7.200
  | Found ionic basis function :  4 s , default cutoff radius.
  Species Se                  : Missing cutoff potential type.
  Defaulting to exp(1/x)/(1-x)^2 type cutoff potential.
  Species Se: No 'logarithmic' tag. Using default grid for free atom:
  | Default logarithmic grid data [bohr] : 0.1000E-03 0.1000E+03 0.1012E+01
  | Will include ionic basis functions of  2.0-fold positive Se                   ion.
  Species Se: On-site basis accuracy parameter (for Gram-Schmidt orthonormalisation) not specified.
  Using default value basis_acc =  0.1000000E-03.
  Species Se                  : Using default innermost maximum threshold i_radial=  2 for radial functions.
  Species Se                  : Default cutoff onset for free atom density etc. : 0.40000000E+01 AA.
  Species Se                  : Basic radial grid will be enhanced according to radial_multiplier =   2, to contain   111 grid points.
 
  Finished reading input file 'control.in'.
 
------------------------------------------------------------


------------------------------------------------------------
          Reading geometry description geometry.in.
------------------------------------------------------------
  Vacuum level in z-axis :   0.524837E+02
  Found keyword 'hessian_file', indicating that this is the continuation of a structure optimization.
  Verifying the existence of the file 'hessian.aims' on all processors
  | The smallest distance between any two atoms is         2.51460521 AA.
  | The first atom of this pair is atom number                     23 .
  | The second atom of this pair is atom number                    39 .
  | Wigner-Seitz cell of the first atom image           0     0     0 .
  | (The Wigner-Seitz cell of the second atom is 0 0 0  by definition.)

  Symmetry information by spglib:
  | Precision set to  0.1E-04
  | Number of Operations  : 2
  | Space group           : 6
  | International         : Pm
  | Schoenflies           : Cs^1
  Input structure read successfully.
  The structure contains       74 atoms,  and a total of       3476.000 electrons.

  Input geometry:
  | Unit cell:
  |       16.44347560        0.00000000        0.00000000
  |       -8.22357185       14.23911350        0.00000000
  |        0.00000000        0.00000000       99.63748923
  | Atomic structure:
  |       Atom                x [A]            y [A]            z [A]
  |    1: Species W             0.03503628        1.00440428        2.66500000
  |    2: Species Se            1.68117912        1.94650120        4.35271493
  |    3: Species Se            1.68117912        1.94650120        0.97728507
  |    4: Species W            -1.59259585        3.87270637        2.66500000
  |    5: Species Se            0.06424783        4.82918445        4.34247008
  |    6: Species Se            0.06424783        4.82918445        0.98752992
  |    7: Species W            -3.26355613        6.71587994        2.66500000
  |    8: Species Se           -1.62466785        7.67037097        4.35281222
  |    9: Species Se           -1.62466785        7.67037097        0.97718778
  |   10: Species W            -4.89155645        9.56406053        2.66500000
  |   11: Species Se           -3.25220751       10.51496277        4.35588572
  |   12: Species Se           -3.25220751       10.51496277        0.97411428
  |   13: Species W            -6.53521087       12.41006128        2.66500000
  |   14: Species Se           -4.89192498       13.35415602        4.35588547
  |   15: Species Se           -4.89192498       13.35415602        0.97411453
  |   16: Species W             3.33141249        1.00651266        2.66500000
  |   17: Species Se            4.98148266        1.94641207        4.35278293
  |   18: Species Se            4.98148266        1.94641207        0.97721707
  |   19: Species W             1.71162979        3.84593880        2.66500000
  |   20: Species Se            3.33106129        4.80243285        4.33414045
  |   21: Species Se            3.33106129        4.80243285        0.99585955
  |   22: Species W             0.03570722        6.74740241        2.66500000
  |   23: Species Se            1.67394710        7.67133595        4.33409486
  |   24: Species Se            1.67394710        7.67133595        0.99590514
  |   25: Species W            -1.61399609        9.56927467        2.66500000
  |   26: Species Se            0.02510748       10.52820299        4.35276566
  |   27: Species Se            0.02510748       10.52820299        0.97723434
  |   28: Species W            -3.24852932       12.41010127        2.66500000
  |   29: Species Se           -1.60794296       13.35716146        4.36058873
  |   30: Species Se           -1.60794296       13.35716146        0.96941127
  |   31: Species W             6.62770446        1.00438808        2.66500000
  |   32: Species Se            8.26355404        1.97070668        4.35335469
  |   33: Species Se            8.26355404        1.97070668        0.97664531
  |   34: Species W             4.95054854        3.84577018        2.66500000
  |   35: Species Se            6.59768732        4.82909168        4.34251052
  |   36: Species Se            6.59768732        4.82909168        0.98748948
  |   37: Species Se            4.98708933        7.67113793        4.33407231
  |   38: Species Se            4.98708933        7.67113793        0.99592769
  |   39: Species W             1.65482613        9.55202627        2.66500000
  |   40: Species Se            3.33015035       10.48659285        4.34252281
  |   41: Species Se            3.33015035       10.48659285        0.98747719
  |   42: Species W             0.03203852       12.42479552        2.66500000
  |   43: Species Se            1.68693345       13.35804490        4.35341553
  |   44: Species Se            1.68693345       13.35804490        0.97658447
  |   45: Species W             9.90895640        1.01937703        2.66500000
  |   46: Species Se           11.55305615        1.96855724        4.35352447
  |   47: Species Se           11.55305615        1.96855724        0.97647553
  |   48: Species W             8.25462693        3.87265829        2.66500000
  |   49: Species Se            9.90608378        4.81602053        4.35343437
  |   50: Species Se            9.90608378        4.81602053        0.97656563
  |   51: Species W             6.62550950        6.74723737        2.66500000
  |   52: Species Se            8.28574375        7.67028291        4.35280785
  |   53: Species Se            8.28574375        7.67028291        0.97719215
  |   54: Species W             5.00548136        9.55187308        2.66500000
  |   55: Species Se            6.63511382       10.52809582        4.35272671
  |   56: Species Se            6.63511382       10.52809582        0.97727329
  |   57: Species W             3.32984586       12.39964191        2.66500000
  |   58: Species Se            4.97269533       13.35805356        4.35337849
  |   59: Species Se            4.97269533       13.35805356        0.97662151
  |   60: Species W            13.19727861        1.01942896        2.66500000
  |   61: Species Se           14.84255686        1.97075442        4.35336916
  |   62: Species Se           14.84255686        1.97075442        0.97663084
  |   63: Species W            11.55274420        3.86700589        2.66500000
  |   64: Species Se           13.19930004        4.81605409        4.35341973
  |   65: Species Se           13.19930004        4.81605409        0.97658027
  |   66: Species W             9.92477724        6.71579925        2.66500000
  |   67: Species Se           11.55228406        7.66968419        4.36054551
  |   68: Species Se           11.55228406        7.66968419        0.96945449
  |   69: Species W             8.27443678        9.56918700        2.66500000
  |   70: Species Se            9.91250016       10.51492052        4.35593586
  |   71: Species Se            9.91250016       10.51492052        0.97406414
  |   72: Species W             6.62770960       12.42474586        2.66500000
  |   73: Species Se            8.26755681       13.35715444        4.36059285
  |   74: Species Se            8.26755681       13.35715444        0.96940715

  Lattice parameters for 3D lattice (in Angstroms) :    16.443476   16.443220   99.637489
  Angle(s) between unit vectors (in degrees)       :    90.000000   90.000000  120.007894


  Quantities derived from the lattice vectors:
  | Reciprocal lattice vector 1:  0.382108  0.220680  0.000000
  | Reciprocal lattice vector 2: -0.000000  0.441262  0.000000
  | Reciprocal lattice vector 3:  0.000000  0.000000  0.063060
  | Unit cell volume                               :   0.233292E+05  A^3

  Fractional coordinates:
                         L1                L2                L3
       atom_frac         0.03740778        0.07053840        0.02674696  W
       atom_frac         0.17060564        0.13670101        0.04368551  Se
       atom_frac         0.17060564        0.13670101        0.00980841  Se
       atom_frac         0.03916591        0.27197665        0.02674696  W
       atom_frac         0.17351964        0.33914923        0.04358269  Se
       atom_frac         0.17351964        0.33914923        0.00991123  Se
       atom_frac         0.03740649        0.47165014        0.02674696  W
       atom_frac         0.17059848        0.53868318        0.04368649  Se
       atom_frac         0.17059848        0.53868318        0.00980743  Se
       atom_frac         0.03843552        0.67167528        0.02674696  W
       atom_frac         0.17152948        0.73845628        0.04371734  Se
       atom_frac         0.17152948        0.73845628        0.00977658  Se
       atom_frac         0.03843598        0.87154732        0.02674696  W
       atom_frac         0.17153027        0.93785024        0.04371733  Se
       atom_frac         0.17153027        0.93785024        0.00977659  Se
       atom_frac         0.23794895        0.07068647        0.02674696  W
       atom_frac         0.37130847        0.13669475        0.04368620  Se
       atom_frac         0.37130847        0.13669475        0.00980772  Se
       atom_frac         0.23917025        0.27009679        0.02674696  W
       atom_frac         0.37124934        0.33727049        0.04349909  Se
       atom_frac         0.37124934        0.33727049        0.00999483  Se
       atom_frac         0.23915634        0.47386394        0.02674696  W
       atom_frac         0.37123564        0.53875095        0.04349864  Se
       atom_frac         0.37123564        0.53875095        0.00999529  Se
       atom_frac         0.23794150        0.67204146        0.02674696  W
       atom_frac         0.37130243        0.73938613        0.04368602  Se
       atom_frac         0.37130243        0.73938613        0.00980790  Se
       atom_frac         0.23831494        0.87155013        0.02674696  W
       atom_frac         0.37134921        0.93806131        0.04376454  Se
       atom_frac         0.37134921        0.93806131        0.00972938  Se
       atom_frac         0.43833633        0.07053726        0.02674696  W
       atom_frac         0.57175894        0.13840094        0.04369193  Se
       atom_frac         0.57175894        0.13840094        0.00980199  Se
       atom_frac         0.43613720        0.27008494        0.02674696  W
       atom_frac         0.57084354        0.33914272        0.04358310  Se
       atom_frac         0.57084354        0.33914272        0.00991082  Se
       atom_frac         0.57271543        0.53873704        0.04349841  Se
       atom_frac         0.57271543        0.53873704        0.00999551  Se
       atom_frac         0.43612713        0.67083012        0.02674696  W
       atom_frac         0.57083516        0.73646389        0.04358322  Se
       atom_frac         0.57083516        0.73646389        0.00991070  Se
       atom_frac         0.43833678        0.87258210        0.02674696  W
       atom_frac         0.57175615        0.93812335        0.04369255  Se
       atom_frac         0.57175615        0.93812335        0.00980138  Se
       atom_frac         0.63841012        0.07158992        0.02674696  W
       atom_frac         0.77173252        0.13824999        0.04369364  Se
       atom_frac         0.77173252        0.13824999        0.00980028  Se
       atom_frac         0.63801710        0.27197327        0.02674696  W
       atom_frac         0.77158258        0.33822474        0.04369273  Se
       atom_frac         0.77158258        0.33822474        0.00980119  Se
       atom_frac         0.63990537        0.47385235        0.02674696  W
       atom_frac         0.77329106        0.53867700        0.04368645  Se
       atom_frac         0.77329106        0.53867700        0.00980747  Se
       atom_frac         0.63988982        0.67081937        0.02674696  W
       atom_frac         0.77328219        0.73937860        0.04368563  Se
       atom_frac         0.77328219        0.73937860        0.00980829  Se
       atom_frac         0.63800748        0.87081558        0.02674696  W
       atom_frac         0.77157807        0.93812396        0.04369217  Se
       atom_frac         0.77157807        0.93812396        0.00980175  Se
       atom_frac         0.83838927        0.07159357        0.02674696  W
       atom_frac         0.97185868        0.13840429        0.04369208  Se
       atom_frac         0.97185868        0.13840429        0.00980184  Se
       atom_frac         0.83839158        0.27157631        0.02674696  W
       atom_frac         0.97185871        0.33822710        0.04369259  Se
       atom_frac         0.97185871        0.33822710        0.00980133  Se
       atom_frac         0.83944416        0.47164448        0.02674696  W
       atom_frac         0.97192270        0.53863495        0.04376410  Se
       atom_frac         0.97192270        0.53863495        0.00972982  Se
       atom_frac         0.83929747        0.67203531        0.02674696  W
       atom_frac         0.97213171        0.73845331        0.04371784  Se
       atom_frac         0.97213171        0.73845331        0.00977608  Se
       atom_frac         0.83944677        0.87257861        0.02674696  W
       atom_frac         0.97192149        0.93806082        0.04376458  Se
       atom_frac         0.97192149        0.93806082        0.00972934  Se

  Initial moments and charges:
  |  Atom   Moment         Charge        Species
  |     1   0.100000E+01   0.000000E+00   W
  |     2   0.100000E+01   0.000000E+00   Se
  |     3   0.100000E+01   0.000000E+00   Se
  |     4   0.100000E+01   0.000000E+00   W
  |     5   0.100000E+01   0.000000E+00   Se
  |     6   0.100000E+01   0.000000E+00   Se
  |     7   0.100000E+01   0.000000E+00   W
  |     8   0.100000E+01   0.000000E+00   Se
  |     9   0.100000E+01   0.000000E+00   Se
  |    10   0.100000E+01   0.000000E+00   W
  |    11   0.100000E+01   0.000000E+00   Se
  |    12   0.100000E+01   0.000000E+00   Se
  |    13   0.100000E+01   0.000000E+00   W
  |    14   0.100000E+01   0.000000E+00   Se
  |    15   0.100000E+01   0.000000E+00   Se
  |    16   0.100000E+01   0.000000E+00   W
  |    17   0.100000E+01   0.000000E+00   Se
  |    18   0.100000E+01   0.000000E+00   Se
  |    19   0.100000E+01   0.000000E+00   W
  |    20   0.100000E+01   0.000000E+00   Se
  |    21   0.100000E+01   0.000000E+00   Se
  |    22   0.100000E+01   0.000000E+00   W
  |    23   0.100000E+01   0.000000E+00   Se
  |    24   0.100000E+01   0.000000E+00   Se
  |    25   0.100000E+01   0.000000E+00   W
  |    26   0.100000E+01   0.000000E+00   Se
  |    27   0.100000E+01   0.000000E+00   Se
  |    28   0.100000E+01   0.000000E+00   W
  |    29   0.100000E+01   0.000000E+00   Se
  |    30   0.100000E+01   0.000000E+00   Se
  |    31   0.100000E+01   0.000000E+00   W
  |    32   0.100000E+01   0.000000E+00   Se
  |    33   0.100000E+01   0.000000E+00   Se
  |    34   0.100000E+01   0.000000E+00   W
  |    35   0.100000E+01   0.000000E+00   Se
  |    36   0.100000E+01   0.000000E+00   Se
  |    37   0.100000E+01   0.000000E+00   Se
  |    38   0.100000E+01   0.000000E+00   Se
  |    39   0.100000E+01   0.000000E+00   W
  |    40   0.100000E+01   0.000000E+00   Se
  |    41   0.100000E+01   0.000000E+00   Se
  |    42   0.100000E+01   0.000000E+00   W
  |    43   0.100000E+01   0.000000E+00   Se
  |    44   0.100000E+01   0.000000E+00   Se
  |    45   0.100000E+01   0.000000E+00   W
  |    46   0.100000E+01   0.000000E+00   Se
  |    47   0.100000E+01   0.000000E+00   Se
  |    48   0.100000E+01   0.000000E+00   W
  |    49   0.100000E+01   0.000000E+00   Se
  |    50   0.100000E+01   0.000000E+00   Se
  |    51   0.100000E+01   0.000000E+00   W
  |    52   0.100000E+01   0.000000E+00   Se
  |    53   0.100000E+01   0.000000E+00   Se
  |    54   0.100000E+01   0.000000E+00   W
  |    55   0.100000E+01   0.000000E+00   Se
  |    56   0.100000E+01   0.000000E+00   Se
  |    57   0.100000E+01   0.000000E+00   W
  |    58   0.100000E+01   0.000000E+00   Se
  |    59   0.100000E+01   0.000000E+00   Se
  |    60   0.100000E+01   0.000000E+00   W
  |    61   0.100000E+01   0.000000E+00   Se
  |    62   0.100000E+01   0.000000E+00   Se
  |    63   0.100000E+01   0.000000E+00   W
  |    64   0.100000E+01   0.000000E+00   Se
  |    65   0.100000E+01   0.000000E+00   Se
  |    66   0.100000E+01   0.000000E+00   W
  |    67   0.100000E+01   0.000000E+00   Se
  |    68   0.100000E+01   0.000000E+00   Se
  |    69   0.100000E+01   0.000000E+00   W
  |    70   0.100000E+01   0.000000E+00   Se
  |    71   0.100000E+01   0.000000E+00   Se
  |    72   0.100000E+01   0.000000E+00   W
  |    73   0.100000E+01   0.000000E+00   Se
  |    74   0.100000E+01   0.000000E+00   Se

 
  Finished reading input file 'control.in'.
 

------------------------------------------------------------
          Reading geometry description geometry.in.
------------------------------------------------------------
 
  Consistency checks for stacksize environment parameter are next.
 
  | Maximum stacksize for task 0: unlimited
  | Maximum stacksize for task 1: unlimited
  | Maximum stacksize for task 2: unlimited
  | Maximum stacksize for task 3: unlimited
  | Maximum stacksize for task 4: unlimited
  | Maximum stacksize for task 5: unlimited
  | Maximum stacksize for task 6: unlimited
  | Maximum stacksize for task 7: unlimited
  | Maximum stacksize for task 8: unlimited
  | Maximum stacksize for task 9: unlimited
  | Maximum stacksize for task 10: unlimited
  | Maximum stacksize for task 11: unlimited
  | Maximum stacksize for task 12: unlimited
  | Maximum stacksize for task 13: unlimited
  | Maximum stacksize for task 14: unlimited
  | Maximum stacksize for task 15: unlimited
  | Maximum stacksize for task 16: unlimited
  | Maximum stacksize for task 17: unlimited
  | Maximum stacksize for task 18: unlimited
  | Maximum stacksize for task 19: unlimited
  | Maximum stacksize for task 20: unlimited
  | Maximum stacksize for task 21: unlimited
  | Maximum stacksize for task 22: unlimited
  | Maximum stacksize for task 23: unlimited
  | Maximum stacksize for task 24: unlimited
  | Maximum stacksize for task 25: unlimited
  | Maximum stacksize for task 26: unlimited
  | Maximum stacksize for task 27: unlimited
  | Maximum stacksize for task 28: unlimited
  | Maximum stacksize for task 29: unlimited
  | Maximum stacksize for task 30: unlimited
  | Maximum stacksize for task 31: unlimited
  | Maximum stacksize for task 32: unlimited
  | Maximum stacksize for task 33: unlimited
  | Maximum stacksize for task 34: unlimited
  | Maximum stacksize for task 35: unlimited
  | Maximum stacksize for task 36: unlimited
  | Maximum stacksize for task 37: unlimited
  | Maximum stacksize for task 38: unlimited
  | Maximum stacksize for task 39: unlimited
  | Maximum stacksize for task 40: unlimited
  | Maximum stacksize for task 41: unlimited
  | Maximum stacksize for task 42: unlimited
  | Maximum stacksize for task 43: unlimited
  | Maximum stacksize for task 44: unlimited
  | Maximum stacksize for task 45: unlimited
  | Maximum stacksize for task 46: unlimited
  | Maximum stacksize for task 47: unlimited
  | Maximum stacksize for task 48: unlimited
  | Maximum stacksize for task 49: unlimited
  | Maximum stacksize for task 50: unlimited
  | Maximum stacksize for task 51: unlimited
  | Maximum stacksize for task 52: unlimited
  | Maximum stacksize for task 53: unlimited
  | Maximum stacksize for task 54: unlimited
  | Maximum stacksize for task 55: unlimited
  | Maximum stacksize for task 56: unlimited
  | Maximum stacksize for task 57: unlimited
  | Maximum stacksize for task 58: unlimited
  | Maximum stacksize for task 59: unlimited
  | Maximum stacksize for task 60: unlimited
  | Maximum stacksize for task 61: unlimited
  | Maximum stacksize for task 62: unlimited
  | Maximum stacksize for task 63: unlimited
  | Maximum stacksize for task 64: unlimited
  | Maximum stacksize for task 65: unlimited
  | Maximum stacksize for task 66: unlimited
  | Maximum stacksize for task 67: unlimited
  | Maximum stacksize for task 68: unlimited
  | Maximum stacksize for task 69: unlimited
  | Maximum stacksize for task 70: unlimited
  | Maximum stacksize for task 71: unlimited
  | Maximum stacksize for task 72: unlimited
  | Maximum stacksize for task 73: unlimited
  | Maximum stacksize for task 74: unlimited
  | Maximum stacksize for task 75: unlimited
  | Maximum stacksize for task 76: unlimited
  | Maximum stacksize for task 77: unlimited
  | Maximum stacksize for task 78: unlimited
  | Maximum stacksize for task 79: unlimited
  | Maximum stacksize for task 80: unlimited
  | Maximum stacksize for task 81: unlimited
  | Maximum stacksize for task 82: unlimited
  | Maximum stacksize for task 83: unlimited
  | Maximum stacksize for task 84: unlimited
  | Maximum stacksize for task 85: unlimited
  | Maximum stacksize for task 86: unlimited
  | Maximum stacksize for task 87: unlimited
  | Maximum stacksize for task 88: unlimited
  | Maximum stacksize for task 89: unlimited
  | Maximum stacksize for task 90: unlimited
  | Maximum stacksize for task 91: unlimited
  | Maximum stacksize for task 92: unlimited
  | Maximum stacksize for task 93: unlimited
  | Maximum stacksize for task 94: unlimited
  | Maximum stacksize for task 95: unlimited
  | Maximum stacksize for task 96: unlimited
  | Maximum stacksize for task 97: unlimited
  | Maximum stacksize for task 98: unlimited
  | Maximum stacksize for task 99: unlimited
  | Maximum stacksize for task 100: unlimited
  | Maximum stacksize for task 101: unlimited
  | Maximum stacksize for task 102: unlimited
  | Maximum stacksize for task 103: unlimited
  | Maximum stacksize for task 104: unlimited
  | Maximum stacksize for task 105: unlimited
  | Maximum stacksize for task 106: unlimited
  | Maximum stacksize for task 107: unlimited
  | Maximum stacksize for task 108: unlimited
  | Maximum stacksize for task 109: unlimited
  | Maximum stacksize for task 110: unlimited
  | Maximum stacksize for task 111: unlimited
  | Maximum stacksize for task 112: unlimited
  | Maximum stacksize for task 113: unlimited
  | Maximum stacksize for task 114: unlimited
  | Maximum stacksize for task 115: unlimited
  | Maximum stacksize for task 116: unlimited
  | Maximum stacksize for task 117: unlimited
  | Maximum stacksize for task 118: unlimited
  | Maximum stacksize for task 119: unlimited
  | Maximum stacksize for task 120: unlimited
  | Maximum stacksize for task 121: unlimited
  | Maximum stacksize for task 122: unlimited
  | Maximum stacksize for task 123: unlimited
  | Maximum stacksize for task 124: unlimited
  | Maximum stacksize for task 125: unlimited
  | Maximum stacksize for task 126: unlimited
  | Maximum stacksize for task 127: unlimited
  | Maximum stacksize for task 128: unlimited
  | Maximum stacksize for task 129: unlimited
  | Maximum stacksize for task 130: unlimited
  | Maximum stacksize for task 131: unlimited
  | Maximum stacksize for task 132: unlimited
  | Maximum stacksize for task 133: unlimited
  | Maximum stacksize for task 134: unlimited
  | Maximum stacksize for task 135: unlimited
  | Maximum stacksize for task 136: unlimited
  | Maximum stacksize for task 137: unlimited
  | Maximum stacksize for task 138: unlimited
  | Maximum stacksize for task 139: unlimited
  | Maximum stacksize for task 140: unlimited
  | Maximum stacksize for task 141: unlimited
  | Maximum stacksize for task 142: unlimited
  | Maximum stacksize for task 143: unlimited
  | Maximum stacksize for task 144: unlimited
  | Maximum stacksize for task 145: unlimited
  | Maximum stacksize for task 146: unlimited
  | Maximum stacksize for task 147: unlimited
  | Maximum stacksize for task 148: unlimited
  | Maximum stacksize for task 149: unlimited
  | Maximum stacksize for task 150: unlimited
  | Maximum stacksize for task 151: unlimited
  | Maximum stacksize for task 152: unlimited
  | Maximum stacksize for task 153: unlimited
  | Maximum stacksize for task 154: unlimited
  | Maximum stacksize for task 155: unlimited
  | Maximum stacksize for task 156: unlimited
  | Maximum stacksize for task 157: unlimited
  | Maximum stacksize for task 158: unlimited
  | Maximum stacksize for task 159: unlimited
  | Maximum stacksize for task 160: unlimited
  | Maximum stacksize for task 161: unlimited
  | Maximum stacksize for task 162: unlimited
  | Maximum stacksize for task 163: unlimited
  | Maximum stacksize for task 164: unlimited
  | Maximum stacksize for task 165: unlimited
  | Maximum stacksize for task 166: unlimited
  | Maximum stacksize for task 167: unlimited
  | Maximum stacksize for task 168: unlimited
  | Maximum stacksize for task 169: unlimited
  | Maximum stacksize for task 170: unlimited
  | Maximum stacksize for task 171: unlimited
  | Maximum stacksize for task 172: unlimited
  | Maximum stacksize for task 173: unlimited
  | Maximum stacksize for task 174: unlimited
  | Maximum stacksize for task 175: unlimited
  | Maximum stacksize for task 176: unlimited
  | Maximum stacksize for task 177: unlimited
  | Maximum stacksize for task 178: unlimited
  | Maximum stacksize for task 179: unlimited
  | Maximum stacksize for task 180: unlimited
  | Maximum stacksize for task 181: unlimited
  | Maximum stacksize for task 182: unlimited
  | Maximum stacksize for task 183: unlimited
  | Maximum stacksize for task 184: unlimited
  | Maximum stacksize for task 185: unlimited
  | Maximum stacksize for task 186: unlimited
  | Maximum stacksize for task 187: unlimited
  | Maximum stacksize for task 188: unlimited
  | Maximum stacksize for task 189: unlimited
  | Maximum stacksize for task 190: unlimited
  | Maximum stacksize for task 191: unlimited
  | Maximum stacksize for task 192: unlimited
  | Maximum stacksize for task 193: unlimited
  | Maximum stacksize for task 194: unlimited
  | Maximum stacksize for task 195: unlimited
  | Maximum stacksize for task 196: unlimited
  | Maximum stacksize for task 197: unlimited
  | Maximum stacksize for task 198: unlimited
  | Maximum stacksize for task 199: unlimited
  | Maximum stacksize for task 200: unlimited
  | Maximum stacksize for task 201: unlimited
  | Maximum stacksize for task 202: unlimited
  | Maximum stacksize for task 203: unlimited
  | Maximum stacksize for task 204: unlimited
  | Maximum stacksize for task 205: unlimited
  | Maximum stacksize for task 206: unlimited
  | Maximum stacksize for task 207: unlimited
  | Maximum stacksize for task 208: unlimited
  | Maximum stacksize for task 209: unlimited
  | Maximum stacksize for task 210: unlimited
  | Maximum stacksize for task 211: unlimited
  | Maximum stacksize for task 212: unlimited
  | Maximum stacksize for task 213: unlimited
  | Maximum stacksize for task 214: unlimited
  | Maximum stacksize for task 215: unlimited
  | Current stacksize for task 0: unlimited
  | Current stacksize for task 1: unlimited
  | Current stacksize for task 2: unlimited
  | Current stacksize for task 3: unlimited
  | Current stacksize for task 4: unlimited
  | Current stacksize for task 5: unlimited
  | Current stacksize for task 6: unlimited
  | Current stacksize for task 7: unlimited
  | Current stacksize for task 8: unlimited
  | Current stacksize for task 9: unlimited
  | Current stacksize for task 10: unlimited
  | Current stacksize for task 11: unlimited
  | Current stacksize for task 12: unlimited
  | Current stacksize for task 13: unlimited
  | Current stacksize for task 14: unlimited
  | Current stacksize for task 15: unlimited
  | Current stacksize for task 16: unlimited
  | Current stacksize for task 17: unlimited
  | Current stacksize for task 18: unlimited
  | Current stacksize for task 19: unlimited
  | Current stacksize for task 20: unlimited
  | Current stacksize for task 21: unlimited
  | Current stacksize for task 22: unlimited
  | Current stacksize for task 23: unlimited
  | Current stacksize for task 24: unlimited
  | Current stacksize for task 25: unlimited
  | Current stacksize for task 26: unlimited
  | Current stacksize for task 27: unlimited
  | Current stacksize for task 28: unlimited
  | Current stacksize for task 29: unlimited
  | Current stacksize for task 30: unlimited
  | Current stacksize for task 31: unlimited
  | Current stacksize for task 32: unlimited
  | Current stacksize for task 33: unlimited
  | Current stacksize for task 34: unlimited
  | Current stacksize for task 35: unlimited
  | Current stacksize for task 36: unlimited
  | Current stacksize for task 37: unlimited
  | Current stacksize for task 38: unlimited
  | Current stacksize for task 39: unlimited
  | Current stacksize for task 40: unlimited
  | Current stacksize for task 41: unlimited
  | Current stacksize for task 42: unlimited
  | Current stacksize for task 43: unlimited
  | Current stacksize for task 44: unlimited
  | Current stacksize for task 45: unlimited
  | Current stacksize for task 46: unlimited
  | Current stacksize for task 47: unlimited
  | Current stacksize for task 48: unlimited
  | Current stacksize for task 49: unlimited
  | Current stacksize for task 50: unlimited
  | Current stacksize for task 51: unlimited
  | Current stacksize for task 52: unlimited
  | Current stacksize for task 53: unlimited
  | Current stacksize for task 54: unlimited
  | Current stacksize for task 55: unlimited
  | Current stacksize for task 56: unlimited
  | Current stacksize for task 57: unlimited
  | Current stacksize for task 58: unlimited
  | Current stacksize for task 59: unlimited
  | Current stacksize for task 60: unlimited
  | Current stacksize for task 61: unlimited
  | Current stacksize for task 62: unlimited
  | Current stacksize for task 63: unlimited
  | Current stacksize for task 64: unlimited
  | Current stacksize for task 65: unlimited
  | Current stacksize for task 66: unlimited
  | Current stacksize for task 67: unlimited
  | Current stacksize for task 68: unlimited
  | Current stacksize for task 69: unlimited
  | Current stacksize for task 70: unlimited
  | Current stacksize for task 71: unlimited
  | Current stacksize for task 72: unlimited
  | Current stacksize for task 73: unlimited
  | Current stacksize for task 74: unlimited
  | Current stacksize for task 75: unlimited
  | Current stacksize for task 76: unlimited
  | Current stacksize for task 77: unlimited
  | Current stacksize for task 78: unlimited
  | Current stacksize for task 79: unlimited
  | Current stacksize for task 80: unlimited
  | Current stacksize for task 81: unlimited
  | Current stacksize for task 82: unlimited
  | Current stacksize for task 83: unlimited
  | Current stacksize for task 84: unlimited
  | Current stacksize for task 85: unlimited
  | Current stacksize for task 86: unlimited
  | Current stacksize for task 87: unlimited
  | Current stacksize for task 88: unlimited
  | Current stacksize for task 89: unlimited
  | Current stacksize for task 90: unlimited
  | Current stacksize for task 91: unlimited
  | Current stacksize for task 92: unlimited
  | Current stacksize for task 93: unlimited
  | Current stacksize for task 94: unlimited
  | Current stacksize for task 95: unlimited
  | Current stacksize for task 96: unlimited
  | Current stacksize for task 97: unlimited
  | Current stacksize for task 98: unlimited
  | Current stacksize for task 99: unlimited
  | Current stacksize for task 100: unlimited
  | Current stacksize for task 101: unlimited
  | Current stacksize for task 102: unlimited
  | Current stacksize for task 103: unlimited
  | Current stacksize for task 104: unlimited
  | Current stacksize for task 105: unlimited
  | Current stacksize for task 106: unlimited
  | Current stacksize for task 107: unlimited
  | Current stacksize for task 108: unlimited
  | Current stacksize for task 109: unlimited
  | Current stacksize for task 110: unlimited
  | Current stacksize for task 111: unlimited
  | Current stacksize for task 112: unlimited
  | Current stacksize for task 113: unlimited
  | Current stacksize for task 114: unlimited
  | Current stacksize for task 115: unlimited
  | Current stacksize for task 116: unlimited
  | Current stacksize for task 117: unlimited
  | Current stacksize for task 118: unlimited
  | Current stacksize for task 119: unlimited
  | Current stacksize for task 120: unlimited
  | Current stacksize for task 121: unlimited
  | Current stacksize for task 122: unlimited
  | Current stacksize for task 123: unlimited
  | Current stacksize for task 124: unlimited
  | Current stacksize for task 125: unlimited
  | Current stacksize for task 126: unlimited
  | Current stacksize for task 127: unlimited
  | Current stacksize for task 128: unlimited
  | Current stacksize for task 129: unlimited
  | Current stacksize for task 130: unlimited
  | Current stacksize for task 131: unlimited
  | Current stacksize for task 132: unlimited
  | Current stacksize for task 133: unlimited
  | Current stacksize for task 134: unlimited
  | Current stacksize for task 135: unlimited
  | Current stacksize for task 136: unlimited
  | Current stacksize for task 137: unlimited
  | Current stacksize for task 138: unlimited
  | Current stacksize for task 139: unlimited
  | Current stacksize for task 140: unlimited
  | Current stacksize for task 141: unlimited
  | Current stacksize for task 142: unlimited
  | Current stacksize for task 143: unlimited
  | Current stacksize for task 144: unlimited
  | Current stacksize for task 145: unlimited
  | Current stacksize for task 146: unlimited
  | Current stacksize for task 147: unlimited
  | Current stacksize for task 148: unlimited
  | Current stacksize for task 149: unlimited
  | Current stacksize for task 150: unlimited
  | Current stacksize for task 151: unlimited
  | Current stacksize for task 152: unlimited
  | Current stacksize for task 153: unlimited
  | Current stacksize for task 154: unlimited
  | Current stacksize for task 155: unlimited
  | Current stacksize for task 156: unlimited
  | Current stacksize for task 157: unlimited
  | Current stacksize for task 158: unlimited
  | Current stacksize for task 159: unlimited
  | Current stacksize for task 160: unlimited
  | Current stacksize for task 161: unlimited
  | Current stacksize for task 162: unlimited
  | Current stacksize for task 163: unlimited
  | Current stacksize for task 164: unlimited
  | Current stacksize for task 165: unlimited
  | Current stacksize for task 166: unlimited
  | Current stacksize for task 167: unlimited
  | Current stacksize for task 168: unlimited
  | Current stacksize for task 169: unlimited
  | Current stacksize for task 170: unlimited
  | Current stacksize for task 171: unlimited
  | Current stacksize for task 172: unlimited
  | Current stacksize for task 173: unlimited
  | Current stacksize for task 174: unlimited
  | Current stacksize for task 175: unlimited
  | Current stacksize for task 176: unlimited
  | Current stacksize for task 177: unlimited
  | Current stacksize for task 178: unlimited
  | Current stacksize for task 179: unlimited
  | Current stacksize for task 180: unlimited
  | Current stacksize for task 181: unlimited
  | Current stacksize for task 182: unlimited
  | Current stacksize for task 183: unlimited
  | Current stacksize for task 184: unlimited
  | Current stacksize for task 185: unlimited
  | Current stacksize for task 186: unlimited
  | Current stacksize for task 187: unlimited
  | Current stacksize for task 188: unlimited
  | Current stacksize for task 189: unlimited
  | Current stacksize for task 190: unlimited
  | Current stacksize for task 191: unlimited
  | Current stacksize for task 192: unlimited
  | Current stacksize for task 193: unlimited
  | Current stacksize for task 194: unlimited
  | Current stacksize for task 195: unlimited
  | Current stacksize for task 196: unlimited
  | Current stacksize for task 197: unlimited
  | Current stacksize for task 198: unlimited
  | Current stacksize for task 199: unlimited
  | Current stacksize for task 200: unlimited
  | Current stacksize for task 201: unlimited
  | Current stacksize for task 202: unlimited
  | Current stacksize for task 203: unlimited
  | Current stacksize for task 204: unlimited
  | Current stacksize for task 205: unlimited
  | Current stacksize for task 206: unlimited
  | Current stacksize for task 207: unlimited
  | Current stacksize for task 208: unlimited
  | Current stacksize for task 209: unlimited
  | Current stacksize for task 210: unlimited
  | Current stacksize for task 211: unlimited
  | Current stacksize for task 212: unlimited
  | Current stacksize for task 213: unlimited
  | Current stacksize for task 214: unlimited
  | Current stacksize for task 215: unlimited
 
  Consistency checks for the contents of control.in are next.
 
  MPI_IN_PLACE appears to work with this MPI implementation.
  | Keeping use_mpi_in_place .true. (see manual).
  Target number of points in a grid batch is not set. Defaulting to  100
  Method for grid partitioning is not set. Defaulting to parallel hash+maxmin partitioning.
  Batch size limit is not set. Defaulting to    200
  By default, will store active basis functions for each batch.
  If in need of memory, prune_basis_once .false. can be used to disable this option.
  communication_type for Hartree potential was not specified.
  Defaulting to calc_hartree .
  Defaulting to Pulay charge density mixer.
  Pulay mixer: Number of relevant iterations not set.
  Defaulting to    8 iterations.
  Pulay mixer: Number of initial linear mixing iterations not set.
  Defaulting to    0 iterations.
  Work space size for distributed Hartree potential not set.
  Defaulting to   0.200000E+03 MB.
  Mixing parameter for charge density mixing has not been set.
  Using default: charge_mix_param =     0.0500.
  The mixing parameter will be adjusted in iteration number     2 of the first full s.c.f. cycle only.
  Mixing parameter for spin density mixing has not been set.
  Using charge_mix_param as default:     0.0500.
  Algorithm-dependent basis array size parameters:
  | n_max_pulay                         :        8
  Maximum number of self-consistency iterations not provided.
  Presetting  1000 iterations.
  Presetting      1001 iterations before the initial mixing cycle
  is restarted anyway using the sc_init_iter criterion / keyword.
  Presetting a factor      1.000 between actual scf density residual
  and density convergence criterion sc_accuracy_rho below which sc_init_iter
  takes no effect.
[...]
   4380       0.00000                      14.966520          14.987818             0.000008
   4381       0.00000                      14.969684          14.989770             0.001952
   4382       0.00000                      14.969692          14.989779             0.000010
   4383       0.00000                      15.121546          15.139397             0.149618
   4384       0.00000                      15.121550          15.139401             0.000003
   4385       0.00000                      15.122784          15.142843             0.003443
   4386       0.00000                      15.122787          15.142847             0.000004
   4387       0.00000                      15.152173          15.195977             0.053130
   4388       0.00000                      15.152173          15.195981             0.000004
   4389       0.00000                      15.160499          15.208100             0.012119
   4390       0.00000                      15.160503          15.208100             0.000000
   4391       0.00000                      15.160598          15.258346             0.050245
   4392       0.00000                      15.160602          15.258349             0.000003
   4393       0.00000                      15.283849          15.329767             0.071418
   4394       0.00000                      15.283857          15.329774             0.000006
   4395       0.00000                      15.295801          15.364450             0.034677
   4396       0.00000                      15.295807          15.364456             0.000005
   4397       0.00000                      15.375864          15.432901             0.068445
   4398       0.00000                      15.375873          15.432904             0.000003
   4399       0.00000                      15.376359          15.452407             0.019503
   4400       0.00000                      15.376368          15.452415             0.000008
   4401       0.00000                      15.411846          15.455691             0.003276
   4402       0.00000                      15.411853          15.455699             0.000008
   4403       0.00000                      15.411916          15.497289             0.041589
   4404       0.00000                      15.411923          15.497294             0.000006
   4405       0.00000                      15.460829          15.541232             0.043938
   4406       0.00000                      15.460835          15.541235             0.000003
   4407       0.00000                      15.508536          15.583837             0.042602
   4408       0.00000                      15.508542          15.583841             0.000004
   4409       0.00000                      15.509112          15.594748             0.010907
   4410       0.00000                      15.509117          15.594751             0.000004
   4411       0.00000                      15.608681          15.658237             0.063486
   4412       0.00000                      15.608685          15.658245             0.000008
   4413       0.00000                      15.640105          15.659649             0.001404
   4414       0.00000                      15.640114          15.659654             0.000005
   4415       0.00000                      16.044650          16.078289             0.418636
   4416       0.00000                      16.044660          16.078293             0.000004
   4417       0.00000                      16.101942          16.082463             0.004170
   4418       0.00000                      16.101947          16.082472             0.000009
   4419       0.00000                      16.102174          16.109748             0.027276
   4420       0.00000                      16.102179          16.109752             0.000004
   4421       0.00000                      16.167103          16.342869             0.233117
   4422       0.00000                      16.167107          16.342873             0.000004
   4423       0.00000                      16.167234          16.364417             0.021543
   4424       0.00000                      16.167238          16.364421             0.000004
   4425       0.00000                      16.284229          16.417795             0.053374
   4426       0.00000                      16.284234          16.417800             0.000005
   4427       0.00000                      16.395516          16.427405             0.009605
   4428       0.00000                      16.395524          16.427410             0.000005
   4429       0.00000                      16.397618          16.431159             0.003749
   4430       0.00000                      16.397625          16.431166             0.000007
   4431       0.00000                      16.399493          16.478319             0.047153
   4432       0.00000                      16.399499          16.478325             0.000006
   4433       0.00000                      16.446853          16.488084             0.009759
   4434       0.00000                      16.446859          16.488091             0.000006
   4435       0.00000                      16.447091          16.491317             0.003226
   4436       0.00000                      16.447097          16.491324             0.000007
   4437       0.00000                      16.462087          16.528060             0.036736
   4438       0.00000                      16.462094          16.528066             0.000007
   4439       0.00000                      16.463570          16.542261             0.014195
   4440       0.00000                      16.463578          16.542261             0.000000
   4441       0.00000                      16.488213          16.542808             0.000547
   4442       0.00000                      16.488219          16.542812             0.000004
   4443       0.00000                      16.488406          16.544827             0.002016
   4444       0.00000                      16.488412          16.544834             0.000006
   4445       0.00000                      16.503506          16.554000             0.009166
   4446       0.00000                      16.503509          16.554002             0.000003
   4447       0.00000                      16.544071          16.589756             0.035753
   4448       0.00000                      16.544079          16.589763             0.000007
   4449       0.00000                      16.545379          16.598139             0.008376
   4450       0.00000                      16.545387          16.598147             0.000007
   4451       0.00000                      16.568905          16.607346             0.009199
   4452       0.00000                      16.568912          16.607349             0.000003
   4453       0.00000                      16.600246          16.629176             0.021827
   4454       0.00000                      16.600250          16.629183             0.000008
   4455       0.00000                      16.625118          16.716424             0.087240
   4456       0.00000                      16.625127          16.716432             0.000008
   4457       0.00000                      16.742969          16.777379             0.060947
   4458       0.00000                      16.742974          16.777383             0.000005

  What follows are estimated values for band gap, HOMO, LUMO, etc.
  | They are estimated on a discrete k-point grid and not necessarily exact.
  | For converged numbers, create a DOS and/or band structure plot on a denser k-grid.

  Highest occupied state (VBM) at     -4.84963628 eV (relative to internal zero)
  | Occupation number:      0.96073615
  | K-point:      10 at    0.500000    0.250000    0.000000 (in units of recip. lattice)

  Lowest unoccupied state (CBM) at    -4.72856372 eV (relative to internal zero)
  | Occupation number:      0.04794087
  | K-point:      16 at    0.750000    0.750000    0.000000 (in units of recip. lattice)

  ESTIMATED overall HOMO-LUMO gap:      0.12107255 eV between HOMO at k-point 10 and LUMO at k-point 16
  | This appears to be an indirect band gap.
  | Smallest direct gap :      0.12110157 eV for k_point 15 at    0.750000    0.500000    0.000000 (in units of recip. lattice)
  The gap value is rather small. This may be a metal or a small-gap semiconductor.
  Since we use a finite k-point grid, a DOS and/or band structure plot is required
  for an unambiguous assignment.
  | Potential vacuum level, "upper" slab surface:    -0.06297448 eV
  | Potential vacuum level, "lower" slab surface:    -0.06297448 eV
  | Work function ("upper" slab surface)        :     4.72446138 eV
  | Work function ("lower" slab surface)        :     4.72446138 eV
  *** Warning: band gap may exist, check the suitability to define work function using chemical potential.
  | VBM (reference: upper vacuum level)         :     4.78666180 eV
  | CBM (reference: upper vacuum level)         :     4.66558924 eV

  Spin-orbit coupling                                     :  max(cpu_time)    wall_clock(cpu1)
  | Computing matrix elements for SOC operator            :         10.271              10.273
  | Constructing second-variational Hamiltonian           :          7.621               7.622
  | Diagonalizing second-variational Hamiltonian          :          9.493               9.494
  | Syncing data and calculating occupations              :         14.337              13.939
  | Writing out data, calculating band gaps, etc.         :          0.019               0.019
  | Total SOC time                                        :         41.350              41.350

  Partial memory accounting:
  | Current value for overall tracked memory usage:
  |   Minimum:      133.980 MB (on task 111)
  |   Maximum:      140.022 MB (on task  14)
  |   Average:      136.410 MB
  | Peak value for overall tracked memory usage:
  |   Minimum:      292.350 MB (on task 121 after allocating temp_cmplx_eienvec)
  |   Maximum:      306.345 MB (on task  14 after allocating temp_cmplx_eienvec)
  |   Average:      298.326 MB
  | Largest tracked array allocation so far:
  |   Minimum:       90.024 MB (soc_matrix on task   0)
  |   Maximum:       90.024 MB (soc_matrix on task   0)
  |   Average:       90.024 MB
  Note:  These values currently only include a subset of arrays which are explicitly tracked.
  The "true" memory usage will be greater.
 ------------------------------------------------------------
 Work function related results without post-SCF corrections:
 ------------------------------------------------------------
  | Chemical Potential                          :    -4.78592341 eV
  Writing energy levels:
  | Potential vacuum level, "upper" slab surface:    -0.06297448 eV
  | Potential vacuum level, "lower" slab surface:    -0.06297448 eV
  Spin-up energy levels:
  | Work function-spin ("upper" slab surface)   :     4.72294892 eV
  | Work function-spin ("lower" slab surface)   :     4.72294892 eV
  *** Warning: band gap may exist, check the suitability to define work function using chemical potential.
  | VBM-spin (reference: upper vacuum level)    :     4.82132564 eV
  | CBM-spin (reference: upper vacuum level)    :     4.62960237 eV
  Spin-down energy levels:
  | Work function-spin ("upper" slab surface)   :     4.72294892 eV
  | Work function-spin ("lower" slab surface)   :     4.72294892 eV
  *** Warning: band gap may exist, check the suitability to define work function using chemical potential.
  | VBM-spin (reference: upper vacuum level)    :     4.82133587 eV
  | CBM-spin (reference: upper vacuum level)    :     4.62962367 eV
 ------------------------------------------------------------
 Work function related results including post-SCF second variational SOC corrections:
 ------------------------------------------------------------
  | Chemical Potential                          :    -4.78743586 eV
  Writing energy levels:
  | Potential vacuum level, "upper" slab surface:    -0.06297448 eV
  | Potential vacuum level, "lower" slab surface:    -0.06297448 eV
  | Work function ("upper" slab surface)        :     4.72446138 eV
  | Work function ("lower" slab surface)        :     4.72446138 eV
  *** Warning: band gap may exist, check the suitability to define work function using chemical potential.
  | VBM (reference: upper vacuum level)         :     4.78666180 eV
  | CBM (reference: upper vacuum level)         :     4.66558924 eV
 ------------------------------------------------------------

------------------------------------------------------------------------------
  Final output of selected total energy values:

  The following output summarizes some interesting total energy values
  at the end of a run (AFTER all relaxation, molecular dynamics, etc.).

  | Total energy of the DFT / Hartree-Fock s.c.f. calculation      :      -14192154.313345749 eV
  | Final zero-broadening corrected energy (caution - metals only) :      -14192154.313924268 eV
  | Total energy after non-SC SOC correction (DO NOT USE)          :      -14192198.028054204 eV
  | For reference only, the value of 1 Hartree used in FHI-aims is :             27.211384500 eV
  | For reference only, the overall average (free atom contribution
  | + realspace contribution) of the electrostatic potential after
  | s.c.f. convergence is                                          :             -1.332115525 eV

  Before relying on these values, please be sure to understand exactly which
  total energy value is referred to by a given number. Different objects may
  all carry the same name 'total energy'. Definitions:

  Total energy of the DFT / Hartree-Fock s.c.f. calculation:
  | Note that this energy does not include ANY quantities calculated after the
  | s.c.f. cycle, in particular not ANY RPA, MP2, etc. many-body perturbation terms.

  Final zero-broadening corrected energy:
  | For metallic systems only, a broadening of the occupation numbers at the Fermi
  | level can be extrapolated back to zero broadening by an electron-gas inspired
  | formula. For all systems that are not real metals, this value can be
  | meaningless and should be avoided.

------------------------------------------------------------------------------
  Methods described in the following list of references were used in this FHI-aims run.
  If you publish the results, please make sure to cite these reference if they apply.
  FHI-aims is an academic code, and for our developers (often, Ph.D. students
  and postdocs), scientific credit in the community is essential.
  Thank you for helping us!

  For any use of FHI-aims, please cite:

    Volker Blum, Ralf Gehrke, Felix Hanke, Paula Havu, Ville Havu,
    Xinguo Ren, Karsten Reuter, and Matthias Scheffler
    'Ab initio molecular simulations with numeric atom-centered orbitals'
    Computer Physics Communications 180, 2175-2196 (2009)
    http://doi.org/10.1016/j.cpc.2009.06.022


  The provided symmetry information was generated with SPGlib:

    Atsushi Togo, Yusuke Seto, Dimitar Pashov
    SPGlib 1.7.3 obtained from http://spglib.sourceforge.net
    Copyright (C) 2008 Atsushi Togo


  For second-variational spin-orbit coupling used in your run, please cite:

    William P. Huhn and Volker Blum,
    'One-hundred-three compound band-structure benchmark of post-self-consistent'
    'spin-orbit coupling treatments in density functional theory'
    Phys. Rev. Materials 1, 033803 (2017).


  The ELSI infrastructure was used in your run to solve the Kohn-Sham electronic structure.
  Please check out http://elsi-interchange.org to learn more.
  If scalability is important for your project, please acknowledge ELSI by citing:

    V. W-z. Yu, F. Corsetti, A. Garcia, W. P. Huhn, M. Jacquelin, W. Jia,
    B. Lange, L. Lin, J. Lu, W. Mi, A. Seifitokaldani, A. Vazquez-Mayagoitia,
    C. Yang, H. Yang, and V. Blum
    'ELSI: A unified software interface for Kohn-Sham electronic structure solvers'
    Computer Physics Communications 222, 267-285 (2018).
    http://doi.org/10.1016/j.cpc.2017.09.007


  For the real-space grid partitioning and parallelization used in this calculation, please cite:

    Ville Havu, Volker Blum, Paula Havu, and Matthias Scheffler,
    'Efficient O(N) integration for all-electron electronic structure calculation'
    'using numerically tabulated basis functions'
    Journal of Computational Physics 228, 8367-8379 (2009).
    http://doi.org/10.1016/j.jcp.2009.08.008

  Of course, there are many other important community references, e.g., those cited in the
  above references. Our list is limited to references that describe implementations in the
  FHI-aims code. The reason is purely practical (length of this list) - please credit others as well.

   One or more s.c.f. cycles took more than 50 s.c.f. iterations.
   It might be worth adjusting your convergence settings. For example,
   metals need a larger broadening and a smaller "charge_mix_param" value than semiconductors.

------------------------------------------------------------
          Leaving FHI-aims.
          Date     :  20220913, Time     :  193514.745

          Computational steps:
          | Number of self-consistency cycles          :           92
          | Number of SCF (re)initializations          :            1
          | Number of relaxation steps                 :            0

          Detailed time accounting                     :  max(cpu_time)    wall_clock(cpu1)
          | Total time                                  :     2066.631 s        2066.639 s
          | Preparation time                            :        1.467 s           1.465 s
          | Boundary condition initalization            :        0.857 s           0.857 s
          | Grid partitioning                           :        1.090 s           1.091 s
          | Preloading free-atom quantities on grid     :        1.734 s           1.734 s
          | Free-atom superposition energy              :        0.089 s           0.089 s
          | Total time for integrations                 :      207.607 s         207.607 s
          | Total time for solution of K.-S. equations  :      911.422 s         911.442 s
          | Total time for EV reorthonormalization      :        0.000 s           0.000 s
          | Total time for density & force components   :      683.757 s         683.757 s
          | Total time for mixing & preconditioning     :       57.726 s          57.720 s
          | Total time for Hartree multipole update     :        1.131 s           1.136 s
          | Total time for Hartree multipole sum        :      142.853 s         142.845 s
          | Total time for total energy evaluation      :        0.231 s           0.287 s
          | Total time NSC force correction             :        5.366 s           5.366 s
          | Total time for scaled ZORA corrections      :        0.000 s           0.000 s
          | Total time for vdW correction               :        9.911 s           9.914 s
          | Total time for perturbative SOC             :       41.350 s          41.350 s

          Partial memory accounting:
          | Residual value for overall tracked memory usage across tasks:     0.000000 MB (should be 0.000000 MB)
          | Peak values for overall tracked memory usage:
          |   Minimum:      292.350 MB (on task 121 after allocating temp_cmplx_eienvec)
          |   Maximum:      306.345 MB (on task  14 after allocating temp_cmplx_eienvec)
          |   Average:      298.326 MB
          | Largest tracked array allocation:
          |   Minimum:       90.024 MB (soc_matrix on task   0)
          |   Maximum:       90.024 MB (soc_matrix on task   0)
          |   Average:       90.024 MB
          Note:  These values currently only include a subset of arrays which are explicitly tracked.
          The "true" memory usage will be greater.

          Have a nice day.
------------------------------------------------------------
