------------------------------------------------------------
          Invoking FHI-aims ...

          When using FHI-aims, please cite the following reference:

            Volker Blum, Ralf Gehrke, Felix Hanke, Paula Havu,
            Ville Havu, Xinguo Ren, Karsten Reuter, and Matthias Scheffler,
            'Ab Initio Molecular Simulations with Numeric Atom-Centered Orbitals',
            Computer Physics Communications 180, 2175-2196 (2009)

          In addition, many other developments in FHI-aims are likely important for
          your particular application. A partial list of references is given at the end of
          this file. Thank you for giving credit to the authors of these developments.

          For any questions about FHI-aims, please visit our slack channel at

            https://fhi-aims.slack.com

          and our main development and support site at

            https://aims-git.rz-berlin.mpg.de .

          The latter site, in particular, has a wiki to collect information, as well
          as an issue tracker to log discussions, suggest improvements, and report issues
          or bugs. https://aims-git.rz-berlin.mpg.de is also the main development site
          of the project and all new and updated code versions can be obtained there.
          Please send an email to aims-coordinators@fhi-berlin.mpg.de and we will add
          you to these sites. They are for you and everyone is welcome there.

------------------------------------------------------------



  Date     :  20221005, Time     :  061438.225
  Time zero on CPU 1             :   0.356826000000000E+00  s.
  Internal wall clock time zero  :           434182478.225  s.

  FHI-aims created a unique identifier for this run for later identification
  aims_uuid : 23D19C9C-F182-4489-AA90-496EE6F1676C

  Build configuration of the current instance of FHI-aims
  -------------------------------------------------------
  FHI-aims version      : 220117
  Commit number         : 0c0e6afe2
  CMake host system     : Linux-5.3.18-24.99-default
  CMake version         : 3.22.0
  Fortran compiler      : /mpcdf/soft/SLE_15/packages/x86_64/intel_oneapi/2021.4/mpi/2021.4.0/bin/mpiifort (Intel) version 2021.4.0.20210910
  Fortran compiler flags: -O3 -ip -fp-model precise
  C compiler            : /mpcdf/soft/SLE_15/packages/x86_64/intel/2021.4.0/bin/icc (Intel) version 2021.4.0.20210910
  C compiler flags      : -O3 -ip -fp-model precise
  C++ compiler          : /mpcdf/soft/SLE_15/packages/x86_64/intel/2021.4.0/bin/icpc (Intel) version 2021.4.0.20210910
  C++ compiler flags    : -O3 -ip -fp-model precise
  Using MPI
  Using ScaLAPACK
  Using LibXC
  Using i-PI
  Using RLSY
  Linking against: /mpcdf/soft/SLE_15/packages/x86_64/intel_oneapi/2021.4/mkl/latest/lib/intel64/libmkl_intel_lp64.so
                   /mpcdf/soft/SLE_15/packages/x86_64/intel_oneapi/2021.4/mkl/latest/lib/intel64/libmkl_sequential.so
                   /mpcdf/soft/SLE_15/packages/x86_64/intel_oneapi/2021.4/mkl/latest/lib/intel64/libmkl_core.so
                   /mpcdf/soft/SLE_15/packages/x86_64/intel_oneapi/2021.4/mkl/latest/lib/intel64/libmkl_blacs_intelmpi_lp64.so
                   /mpcdf/soft/SLE_15/packages/x86_64/intel_oneapi/2021.4/mkl/latest/lib/intel64/libmkl_scalapack_lp64.so

  Using      288 parallel tasks.
  Task        0 on host ravc3577 reporting.
  Task        1 on host ravc3577 reporting.
  Task        2 on host ravc3577 reporting.
  Task        3 on host ravc3577 reporting.
  Task        4 on host ravc3577 reporting.
  Task        5 on host ravc3577 reporting.
  Task        6 on host ravc3577 reporting.
  Task        7 on host ravc3577 reporting.
  Task        8 on host ravc3577 reporting.
  Task        9 on host ravc3577 reporting.
  Task       10 on host ravc3577 reporting.
  Task       11 on host ravc3577 reporting.
  Task       12 on host ravc3577 reporting.
  Task       13 on host ravc3577 reporting.
  Task       14 on host ravc3577 reporting.
  Task       15 on host ravc3577 reporting.
  Task       16 on host ravc3577 reporting.
  Task       17 on host ravc3577 reporting.
  Task       18 on host ravc3577 reporting.
  Task       19 on host ravc3577 reporting.
  Task       20 on host ravc3577 reporting.
  Task       21 on host ravc3577 reporting.
  Task       22 on host ravc3577 reporting.
  Task       23 on host ravc3577 reporting.
  Task       24 on host ravc3577 reporting.
  Task       25 on host ravc3577 reporting.
  Task       26 on host ravc3577 reporting.
  Task       27 on host ravc3577 reporting.
  Task       28 on host ravc3577 reporting.
  Task       29 on host ravc3577 reporting.
  Task       30 on host ravc3577 reporting.
  Task       31 on host ravc3577 reporting.
  Task       32 on host ravc3577 reporting.
  Task       33 on host ravc3577 reporting.
  Task       34 on host ravc3577 reporting.
  Task       35 on host ravc3577 reporting.
  Task       36 on host ravc3577 reporting.
  Task       37 on host ravc3577 reporting.
  Task       38 on host ravc3577 reporting.
  Task       39 on host ravc3577 reporting.
  Task       40 on host ravc3577 reporting.
  Task       41 on host ravc3577 reporting.
  Task       42 on host ravc3577 reporting.
  Task       43 on host ravc3577 reporting.
  Task       44 on host ravc3577 reporting.
  Task       45 on host ravc3577 reporting.
  Task       46 on host ravc3577 reporting.
  Task       47 on host ravc3577 reporting.
  Task       48 on host ravc3577 reporting.
  Task       49 on host ravc3577 reporting.
  Task       50 on host ravc3577 reporting.
  Task       51 on host ravc3577 reporting.
  Task       52 on host ravc3577 reporting.
  Task       53 on host ravc3577 reporting.
  Task       54 on host ravc3577 reporting.
  Task       55 on host ravc3577 reporting.
  Task       56 on host ravc3577 reporting.
  Task       57 on host ravc3577 reporting.
  Task       58 on host ravc3577 reporting.
  Task       59 on host ravc3577 reporting.
  Task       60 on host ravc3577 reporting.
  Task       61 on host ravc3577 reporting.
  Task       62 on host ravc3577 reporting.
  Task       63 on host ravc3577 reporting.
  Task       64 on host ravc3577 reporting.
  Task       65 on host ravc3577 reporting.
  Task       66 on host ravc3577 reporting.
  Task       67 on host ravc3577 reporting.
  Task       68 on host ravc3577 reporting.
  Task       69 on host ravc3577 reporting.
  Task       70 on host ravc3577 reporting.
  Task       71 on host ravc3577 reporting.
  Task       72 on host ravc3579 reporting.
  Task       73 on host ravc3579 reporting.
  Task       74 on host ravc3579 reporting.
  Task       75 on host ravc3579 reporting.
  Task       76 on host ravc3579 reporting.
  Task       77 on host ravc3579 reporting.
  Task       78 on host ravc3579 reporting.
  Task       79 on host ravc3579 reporting.
  Task       80 on host ravc3579 reporting.
  Task       81 on host ravc3579 reporting.
  Task       82 on host ravc3579 reporting.
  Task       83 on host ravc3579 reporting.
  Task       84 on host ravc3579 reporting.
  Task       85 on host ravc3579 reporting.
  Task       86 on host ravc3579 reporting.
  Task       87 on host ravc3579 reporting.
  Task       88 on host ravc3579 reporting.
  Task       89 on host ravc3579 reporting.
  Task       90 on host ravc3579 reporting.
  Task       91 on host ravc3579 reporting.
  Task       92 on host ravc3579 reporting.
  Task       93 on host ravc3579 reporting.
  Task       94 on host ravc3579 reporting.
  Task       95 on host ravc3579 reporting.
  Task       96 on host ravc3579 reporting.
  Task       97 on host ravc3579 reporting.
  Task       98 on host ravc3579 reporting.
  Task       99 on host ravc3579 reporting.
  Task      100 on host ravc3579 reporting.
  Task      101 on host ravc3579 reporting.
  Task      102 on host ravc3579 reporting.
  Task      103 on host ravc3579 reporting.
  Task      104 on host ravc3579 reporting.
  Task      105 on host ravc3579 reporting.
  Task      106 on host ravc3579 reporting.
  Task      107 on host ravc3579 reporting.
  Task      108 on host ravc3579 reporting.
  Task      109 on host ravc3579 reporting.
  Task      110 on host ravc3579 reporting.
  Task      111 on host ravc3579 reporting.
  Task      112 on host ravc3579 reporting.
  Task      113 on host ravc3579 reporting.
  Task      114 on host ravc3579 reporting.
  Task      115 on host ravc3579 reporting.
  Task      116 on host ravc3579 reporting.
  Task      117 on host ravc3579 reporting.
  Task      118 on host ravc3579 reporting.
  Task      119 on host ravc3579 reporting.
  Task      120 on host ravc3579 reporting.
  Task      121 on host ravc3579 reporting.
  Task      122 on host ravc3579 reporting.
  Task      123 on host ravc3579 reporting.
  Task      124 on host ravc3579 reporting.
  Task      125 on host ravc3579 reporting.
  Task      126 on host ravc3579 reporting.
  Task      127 on host ravc3579 reporting.
  Task      128 on host ravc3579 reporting.
  Task      129 on host ravc3579 reporting.
  Task      130 on host ravc3579 reporting.
  Task      131 on host ravc3579 reporting.
  Task      132 on host ravc3579 reporting.
  Task      133 on host ravc3579 reporting.
  Task      134 on host ravc3579 reporting.
  Task      135 on host ravc3579 reporting.
  Task      136 on host ravc3579 reporting.
  Task      137 on host ravc3579 reporting.
  Task      138 on host ravc3579 reporting.
  Task      139 on host ravc3579 reporting.
  Task      140 on host ravc3579 reporting.
  Task      141 on host ravc3579 reporting.
  Task      142 on host ravc3579 reporting.
  Task      143 on host ravc3579 reporting.
  Task      144 on host ravc3582 reporting.
  Task      145 on host ravc3582 reporting.
  Task      146 on host ravc3582 reporting.
  Task      147 on host ravc3582 reporting.
  Task      148 on host ravc3582 reporting.
  Task      149 on host ravc3582 reporting.
  Task      150 on host ravc3582 reporting.
  Task      151 on host ravc3582 reporting.
  Task      152 on host ravc3582 reporting.
  Task      153 on host ravc3582 reporting.
  Task      154 on host ravc3582 reporting.
  Task      155 on host ravc3582 reporting.
  Task      156 on host ravc3582 reporting.
  Task      157 on host ravc3582 reporting.
  Task      158 on host ravc3582 reporting.
  Task      159 on host ravc3582 reporting.
  Task      160 on host ravc3582 reporting.
  Task      161 on host ravc3582 reporting.
  Task      162 on host ravc3582 reporting.
  Task      163 on host ravc3582 reporting.
  Task      164 on host ravc3582 reporting.
  Task      165 on host ravc3582 reporting.
  Task      166 on host ravc3582 reporting.
  Task      167 on host ravc3582 reporting.
  Task      168 on host ravc3582 reporting.
  Task      169 on host ravc3582 reporting.
  Task      170 on host ravc3582 reporting.
  Task      171 on host ravc3582 reporting.
  Task      172 on host ravc3582 reporting.
  Task      173 on host ravc3582 reporting.
  Task      174 on host ravc3582 reporting.
  Task      175 on host ravc3582 reporting.
  Task      176 on host ravc3582 reporting.
  Task      177 on host ravc3582 reporting.
  Task      178 on host ravc3582 reporting.
  Task      179 on host ravc3582 reporting.
  Task      180 on host ravc3582 reporting.
  Task      181 on host ravc3582 reporting.
  Task      182 on host ravc3582 reporting.
  Task      183 on host ravc3582 reporting.
  Task      184 on host ravc3582 reporting.
  Task      185 on host ravc3582 reporting.
  Task      186 on host ravc3582 reporting.
  Task      187 on host ravc3582 reporting.
  Task      188 on host ravc3582 reporting.
  Task      189 on host ravc3582 reporting.
  Task      190 on host ravc3582 reporting.
  Task      191 on host ravc3582 reporting.
  Task      192 on host ravc3582 reporting.
  Task      193 on host ravc3582 reporting.
  Task      194 on host ravc3582 reporting.
  Task      195 on host ravc3582 reporting.
  Task      196 on host ravc3582 reporting.
  Task      197 on host ravc3582 reporting.
  Task      198 on host ravc3582 reporting.
  Task      199 on host ravc3582 reporting.
  Task      200 on host ravc3582 reporting.
  Task      201 on host ravc3582 reporting.
  Task      202 on host ravc3582 reporting.
  Task      203 on host ravc3582 reporting.
  Task      204 on host ravc3582 reporting.
  Task      205 on host ravc3582 reporting.
  Task      206 on host ravc3582 reporting.
  Task      207 on host ravc3582 reporting.
  Task      208 on host ravc3582 reporting.
  Task      209 on host ravc3582 reporting.
  Task      210 on host ravc3582 reporting.
  Task      211 on host ravc3582 reporting.
  Task      212 on host ravc3582 reporting.
  Task      213 on host ravc3582 reporting.
  Task      214 on host ravc3582 reporting.
  Task      215 on host ravc3582 reporting.
  Task      216 on host ravc3596 reporting.
  Task      217 on host ravc3596 reporting.
  Task      218 on host ravc3596 reporting.
  Task      219 on host ravc3596 reporting.
  Task      220 on host ravc3596 reporting.
  Task      221 on host ravc3596 reporting.
  Task      222 on host ravc3596 reporting.
  Task      223 on host ravc3596 reporting.
  Task      224 on host ravc3596 reporting.
  Task      225 on host ravc3596 reporting.
  Task      226 on host ravc3596 reporting.
  Task      227 on host ravc3596 reporting.
  Task      228 on host ravc3596 reporting.
  Task      229 on host ravc3596 reporting.
  Task      230 on host ravc3596 reporting.
  Task      231 on host ravc3596 reporting.
  Task      232 on host ravc3596 reporting.
  Task      233 on host ravc3596 reporting.
  Task      234 on host ravc3596 reporting.
  Task      235 on host ravc3596 reporting.
  Task      236 on host ravc3596 reporting.
  Task      237 on host ravc3596 reporting.
  Task      238 on host ravc3596 reporting.
  Task      239 on host ravc3596 reporting.
  Task      240 on host ravc3596 reporting.
  Task      241 on host ravc3596 reporting.
  Task      242 on host ravc3596 reporting.
  Task      243 on host ravc3596 reporting.
  Task      244 on host ravc3596 reporting.
  Task      245 on host ravc3596 reporting.
  Task      246 on host ravc3596 reporting.
  Task      247 on host ravc3596 reporting.
  Task      248 on host ravc3596 reporting.
  Task      249 on host ravc3596 reporting.
  Task      250 on host ravc3596 reporting.
  Task      251 on host ravc3596 reporting.
  Task      252 on host ravc3596 reporting.
  Task      253 on host ravc3596 reporting.
  Task      254 on host ravc3596 reporting.
  Task      255 on host ravc3596 reporting.
  Task      256 on host ravc3596 reporting.
  Task      257 on host ravc3596 reporting.
  Task      258 on host ravc3596 reporting.
  Task      259 on host ravc3596 reporting.
  Task      260 on host ravc3596 reporting.
  Task      261 on host ravc3596 reporting.
  Task      262 on host ravc3596 reporting.
  Task      263 on host ravc3596 reporting.
  Task      264 on host ravc3596 reporting.
  Task      265 on host ravc3596 reporting.
  Task      266 on host ravc3596 reporting.
  Task      267 on host ravc3596 reporting.
  Task      268 on host ravc3596 reporting.
  Task      269 on host ravc3596 reporting.
  Task      270 on host ravc3596 reporting.
  Task      271 on host ravc3596 reporting.
  Task      272 on host ravc3596 reporting.
  Task      273 on host ravc3596 reporting.
  Task      274 on host ravc3596 reporting.
  Task      275 on host ravc3596 reporting.
  Task      276 on host ravc3596 reporting.
  Task      277 on host ravc3596 reporting.
  Task      278 on host ravc3596 reporting.
  Task      279 on host ravc3596 reporting.
  Task      280 on host ravc3596 reporting.
  Task      281 on host ravc3596 reporting.
  Task      282 on host ravc3596 reporting.
  Task      283 on host ravc3596 reporting.
  Task      284 on host ravc3596 reporting.
  Task      285 on host ravc3596 reporting.
  Task      286 on host ravc3596 reporting.
  Task      287 on host ravc3596 reporting.

  Performing system and environment tests:
  | Environment variable OMP_NUM_THREADS correctly set to 1.
  | Checking for ScaLAPACK...
  | Testing pdtran()...
  | All pdtran() tests passed.

  Obtaining array dimensions for all initial allocations:
  
  -----------------------------------------------------------------------
  Parsing control.in (first pass over file, find array dimensions only).
  The contents of control.in will be repeated verbatim below
  unless switched off by setting 'verbatim_writeout .false.' .
  in the first line of control.in .
  -----------------------------------------------------------------------
  
  xc                 hse06  0.11
  hse_unit b
  spin               collinear
  default_initial_moment 1
  charge      0.0
  relativistic       atomic_zora scalar
  #elsi_restart read
  output dos_tetrahedron -10 0 1001 0.1
  output species_proj_dos_tetrahedron -10 0 1001 0.1
  # SCF settings
  #relax_geometry bfgs 1E-3
  #relax_unit_cell fixed_angles
  use_symmetric_forces .true.
  occupation_type gaussian       0.1
  # k-grid settings  (to be adjusted)
  k_grid  4 4 1
  #empty_states 8
  use_dipole_correction
  include_spin_orbit non_self_consistent
  #energy_tolerance 1e-3
   sc_accuracy_rho    1E-4
      sc_accuracy_eev    1E-3
      sc_accuracy_etot   1E-4
      sc_accuracy_forces 1E-2
  many_body_dispersion_nl    beta=0.83
  ################################################################################
  #
  #  FHI-aims code project
  #  Volker Blum, 2018
  #
  #  Suggested "intermediate" defaults for Se atom (to be pasted into control.in file)
  #
  #  2020/09/15 These "intermediate" settings are identical to past "tight" defaults
  #             and differ only in the "g" function that is now included in "tight".
  #
  ################################################################################
    species        Se
  #     global species definitions
      nucleus             34
      mass                78.96
  #
      l_hartree           6
  #
      cut_pot             4.0          2.0  1.0
      basis_dep_cutoff    1e-4
  #
      radial_base         55 7.0
      radial_multiplier   2
      angular_grids       specified
        division   0.0830  110
        division   0.1357  194
        division   0.7377  302
        division   0.8610  434
  #      division   0.9640  590
  #      division   1.0773  770
  #      division   2.5539  974
  #      outer_grid  974
        outer_grid  434
  ################################################################################
  #
  #  Definition of "minimal" basis
  #
  ################################################################################
  #     valence basis states
      valence      4  s   2.
      valence      4  p   4.
      valence      3  d  10.
  #     ion occupancy
      ion_occ      4  s   1.
      ion_occ      4  p   3.
      ion_occ      3  d  10.
  ################################################################################
  #
  #  Suggested additional basis functions. For production calculations,
  #  uncomment them one after another (the most important basis functions are
  #  listed first).
  #
  #  Constructed for dimers: 1.85 A, 2.15 A, 2.50 A, 3.00 A, 4.00 A
  #
  ################################################################################
  #  "First tier" - improvements: -336.21 meV to -36.85 meV
       hydro 3 d 4.3
       hydro 2 p 1.6
       hydro 4 f 7.2
       ionic 4 s auto
  #  "Second tier" - improvements: -14.39 meV to -1.49 meV
  #     hydro 5 g 10.4
  #     hydro 4 p 4.5
  #     hydro 4 d 6.2
  #     hydro 4 f 11.2
  #     hydro 1 s 0.65
  #     hydro 6 h 15.2
  #  "Third tier" - improvements: -0.46 meV and below
  #     hydro 5 g 14.4
  #     ionic 4 d auto
  #     hydro 4 f 22.4
  #     hydro 5 f 7.4
  #     hydro 5 p 8
  #     hydro 5 s 9.4
  #  "Fourth tier" - improvements: -0.12 meV and below
  #     hydro 5 d 11.6
  #     hydro 6 h 18
  #     hydro 4 p 4
  #     hydro 5 f 16
  #     hydro 4 s 3.9
  
  
  ################################################################################
  #
  #  FHI-aims code project
  #  Volker Blum, 2018
  #
  #  Suggested "intermediate" defaults for S atom (to be pasted into control.in file)
  #
  ################################################################################
    species        S
  #     global species definitions
      nucleus             16
      mass                32.065
  #
      l_hartree           6
  #
      cut_pot             4.0          2.0  1.0
      basis_dep_cutoff    1e-4
  #
      radial_base         44 7.0
      radial_multiplier   2
      angular_grids       specified
        division   0.4665  110
        division   0.5810  194
        division   0.7139  302
        division   0.8274  434
  #      division   0.9105  590
  #      division   1.0975  770
  #      division   1.2028  974
  #      outer_grid  974
        outer_grid  434
  ################################################################################
  #
  #  Definition of "minimal" basis
  #
  ################################################################################
  #     valence basis states
      valence      3  s   2.
      valence      3  p   4.
  #     ion occupancy
      ion_occ      3  s   1.
      ion_occ      3  p   3.
  ################################################################################
  #
  #  Suggested additional basis functions. For production calculations,
  #  uncomment them one after another (the most important basis functions are
  #  listed first).
  #
  #  Constructed for dimers: 1.6 A, 1.9 A, 2.5 A, 3.25 A, 4.0 A
  #
  ################################################################################
  #  "First tier" - improvements: -652.81 meV to -45.53 meV
       ionic 3 d auto
       hydro 2 p 1.8
       hydro 4 f 7
       ionic 3 s auto
  #  "Second tier" - improvements: -30.20 meV to -1.74 meV
  #     hydro 4 d 6.2
  for_aux     hydro 5 g 10.8
  #     hydro 4 p 4.9
  #     hydro 5 f 10
  #     hydro 1 s 0.8
  #  "Third tier" - improvements: -1.04 meV to -0.20 meV
  #     hydro 3 d 3.9
  #     hydro 3 d 2.7
  #     hydro 5 g 12
  #     hydro 4 p 10.4
  #     hydro 5 f 12.4
  #     hydro 2 s 1.9
  #  "Fourth tier" - improvements: -0.35 meV to -0.06 meV
  #     hydro 4 d 10.4
  #     hydro 4 p 7.2
  #     hydro 4 d 10
  #     hydro 5 g 19.2
  #     hydro 4 s 12
  
  ################################################################################
  #
  #  FHI-aims code project
  # Volker Blum, Fritz Haber Institute Berlin, 2009
  #
  #  Suggested "intermediate" defaults for Mo atom (to be pasted into control.in file)
  #
  #  See https://aaltodoc.aalto.fi/handle/123456789/33620 for the report these
  #  setting are based on
  ################################################################################
    species        Mo
  #     global species definitions
      nucleus             42
      mass                95.94
  #
      l_hartree           6
  #
      cut_pot             4.0  2.0  1.0
      basis_dep_cutoff    1e-4
  #
      radial_base         59 7.0
      radial_multiplier   2
      angular_grids specified
        division   0.3117   50
        division   0.6750  110
        division   1.0351  194
        division   1.2073  302
        division   1.6402  434
  #      division   1.9185  590
  #      division   2.0237  770
  #      division   2.0980  974
  #      division   2.7972 1202
  #      outer_grid  974
        outer_grid  434
  ################################################################################
  #
  #  Definition of "minimal" basis
  #
  ################################################################################
  #     valence basis states
      valence      5  s   1.
      valence      4  p   6.
      valence      4  d   5.
  #     ion occupancy
      ion_occ     5  s   0.
      ion_occ     4  p   6.
      ion_occ     4  d   4.
  ################################################################################
  #
  #  Suggested additional basis functions. For production calculations,
  #  uncomment them one after another (the most important basis functions are
  #  listed first).
  #
  #  Constructed for dimers: 1.675 A, 1.9 A, 2.375 A, 3.00 A, 4.00 A
  #
  ################################################################################
  #  "First tier"  - max. impr. -711.23  meV, min. impr. -21.07 meV
       hydro 4 f 8.4
       hydro 3 d 2.8
       ionic 5 p auto
       for_aux hydro 5 g 12
       ionic 5 s auto
  #  "Second tier" - max. impr. -39.38  meV, min. impr. -2.68 meV
  #     hydro 4 f 12.4
  #     hydro 3 d 3.3
  #     hydro 6 h 17.2
  #     hydro 4 f 7.6
  #     hydro 3 p 3.0
  #     hydro 1 s 0.65
  #  "Third tier"  - max. impr. -5.50 meV, min. impr. -0.47 meV
  #     hydro 4 f 29.2
  #     hydro 5 g 11.2
  #     hydro 3 d 6.8
  #     hydro 6 h 14.8
  #     hydro 2 p 2.3
  #     hydro 4 s 3.8
  #  "Fourth tier"  - max. impr. -0.58 meV, min. impr. -0.19 meV
  #     hydro 5 f 6.8
  #     hydro 5 d 14.8
  #     hydro 6 s 7.8
  #     hydro 5 g 20.8
  #     hydro 5 d 10.4
  #     hydro 5 p 9.8
  #  Further functions - -0.17 meV and below
  #     hydro 5 d 3.2
  ################################################################################
  #
  #  FHI-aims code project
  #  Volker Blum, Maria Dragoumi, Sebastian Kokott 2020
  #
  #  Suggested "intermediate" defaults for W atom (to be pasted into control.in file)
  #
  ################################################################################
    species          W
  #     global species definitions
      nucleus        74
      mass           183.84
  #
      l_hartree      6
  #
      cut_pot        4.0  2.0  1.0
      basis_dep_cutoff    1e-4
  #
      radial_base    71  7.0
      radial_multiplier  2
      angular_grids specified
        division   0.2901   50
        division   0.6986  110
        division   1.0528  194
        division   1.2659  302
        division   1.5223  434
  #      division   1.8111  590
  #      division   2.0105  770
  #      division   2.0413  974
  #      division   2.8804 1202
  #      outer_grid  974
        outer_grid  434
  ################################################################################
  #
  #  Definition of "minimal" basis
  #
  ################################################################################
  #     valence basis states
      valence      6  s   2.
      valence      5  p   6.
      valence      5  d   4.
      valence      4  f  14.
  #     ion occupancy
      ion_occ      6  s   1.
      ion_occ      5  p   6.
      ion_occ      5  d   3.
      ion_occ      4  f  14.
  ################################################################################
  #
  #  Suggested additional basis functions. For production calculations,
  #  uncomment them one after another (the most important basis functions are
  #  listed first).
  #
  #  Constructed for dimers: 1.775, 1.99, 2.50, 3.25, 4.50 AA
  #
  ################################################################################
  #
  #  "First tier" - improvements: -603.77 meV to -28.99 meV
       hydro 4 f 7.8
       hydro 4 d 5.8
       ionic 6 p auto
    for_aux   hydro 5 g 12.4
       ionic 6 s auto
  #  "Second tier" - improvements: -28.30 meV to -1.31 meV
  #     hydro 6 h 16.8
  #     ionic 5 d auto
  #     hydro 4 f 8.6
  #     hydro 5 g 16.8
  #     hydro 5 d 8.4
  #     hydro 3 p 3.3
  #     hydro 1 s 0.55
  #  "Third tier" - max. impr. -1.79 meV, min. impr. -0.26 meV
  #     hydro 5 f 10.8
  #     hydro 5 g 34.4
  #     hydro 6 h 20.8
  #     hydro 5 g 12.8
  #     hydro 2 p 1.6
  #     hydro 4 s 4.7
  #     hydro 6 d 18.4
  #  "Fourth tier" -0.46 max. impr. - meV, min. impr. -0.09 meV
  #     hydro 6 h 21.6
  #     hydro 5 f 22.4
  #     hydro 4 f 4
  #     hydro 5 p 9.6
  #     hydro 6 d 17.2
  #     hydro 3 p 5.2
  #     hydro 5 g 4.7
  #     hydro 6 s 7.6
  
  -----------------------------------------------------------------------
  Completed first pass over input file control.in .
  -----------------------------------------------------------------------
  
  
  -----------------------------------------------------------------------
  Parsing geometry.in (first pass over file, find array dimensions only).
  The contents of geometry.in will be repeated verbatim below
  unless switched off by setting 'verbatim_writeout .false.' .
  in the first line of geometry.in .
  -----------------------------------------------------------------------
  
  #
  # This is the geometry file that corresponds to the current relaxation step.
  # If you do not want this file to be written, set the "write_restart_geometry" flag to .false.
  #  aims_uuid : D0A9C21E-9283-4C2C-A129-D74A3D2ABD5F
  #
    set_vacuum_level         0.002315
  lattice_vector     15.72847685      0.00000000      0.00000000
  lattice_vector     -7.86461685     13.62035640      0.00000000
  lattice_vector      0.00000000      0.00000000    103.13570646
  atom       0.00233702      0.90597713     51.57007717 W
  atom       1.57868250      1.83749067     53.13428947 S
  atom       1.57867532      1.83747703     50.00582264 S
  atom      -1.56715626      3.63480589     51.57009301 W
  atom       0.01254118      4.54673432     53.13620443 S
  atom       0.01251595      4.54674107     50.00393718 S
  atom      -3.14587428      6.35831662     51.57009790 W
  atom      -1.55089504      7.25755878     53.13430946 S
  atom      -1.55090020      7.25755118     50.00586930 S
  atom      -4.73206273      9.07232133     51.57008260 W
  atom      -3.14594566      9.98113934     53.13168004 S
  atom      -3.14593975      9.98113738     50.00843751 S
  atom      -6.30470344     11.79580624     51.57010598 W
  atom      -4.72450097     12.71487498     53.13170214 S
  atom      -4.72451170     12.71486584     50.00843485 S
  atom       3.14596831      0.92248831     51.57007969 W
  atom       4.71849625      1.84271047     53.13241457 S
  atom       4.71851637      1.84271329     50.00775437 S
  atom       1.59122934      3.66615851     51.57005830 W
  atom       3.18664956      4.64130345     53.13215334 S
  atom       3.18667166      4.64134326     50.00800717 S
  atom       0.03922364      6.35418483     51.57009238 W
  atom       1.68156669      7.24803029     53.13212750 S
  atom       1.68159353      7.24806309     50.00807410 S
  atom      -1.55979733      9.07230841     51.57007657 W
  atom       0.02352306      9.97387090     53.13240795 S
  atom       0.02356597      9.97387685     50.00778355 S
  atom      -3.14602465     11.80367074     51.57007268 W
  atom      -1.56757849     12.71486025     53.13172374 S
  atom      -1.56754901     12.71486591     50.00845213 S
  atom       6.29108693      0.92248410     51.57010665 W
  atom       7.85832691      1.83747629     53.13433479 S
  atom       7.85835977      1.83747613     50.00586210 S
  atom       4.71843993      3.68212710     51.57008891 W
  atom       6.25018324      4.64130186     53.13214486 S
  atom       6.25020416      4.64132435     50.00803801 S
  atom       3.30148195      6.44541778     51.57012957 W
  atom       1.61666416      9.05415672     51.57014514 W
  atom       3.21327160      9.90096078     53.13219272 S
  atom       3.21328693      9.90096903     50.00809960 S
  atom       0.01267121     11.79582126     51.57011349 W
  atom       1.58879223     12.69544898     53.13435162 S
  atom       1.58882649     12.69545391     50.00590967 S
  atom       9.43471398      0.90596902     51.57013633 W
  atom      11.00774709      1.81414715     53.13560553 S
  atom      11.00773933      1.81412774     50.00466237 S
  atom       7.84563574      3.66615984     51.57011543 W
  atom       9.42434192      4.54673664     53.13624828 S
  atom       9.42433556      4.54672162     50.00397054 S
  atom       6.13527533      6.44542478     51.57013295 W
  atom       7.75515015      7.24804785     53.13214721 S
  atom       7.75512420      7.24804993     50.00810100 S
  atom       4.71829764      8.89943279     51.57015702 W
  atom       6.22329744      9.90096376     53.13219609 S
  atom       6.22326539      9.90093811     50.00807298 S
  atom       3.16630858     11.77020431     51.57015058 W
  atom       4.71823670     12.69709428     53.13629119 S
  atom       4.71820449     12.69708779     50.00398521 S
  atom      12.58274799      0.90070866     51.57013217 W
  atom      14.15776370      1.81413154     53.13556838 S
  atom      14.15772621      1.81412055     50.00461781 S
  atom      11.00405650      3.63480321     51.57012115 W
  atom      12.58267280      4.54196514     53.13556413 S
  atom      12.58265702      4.54195348     50.00463551 S
  atom       9.39752843      6.35416077     51.57010723 W
  atom      10.98761034      7.25756638     53.13429372 S
  atom      10.98760203      7.25754340     50.00585708 S
  atom       7.81991933      9.05416335     51.57011771 W
  atom       9.41303713      9.97386270     53.13240656 S
  atom       9.41300215      9.97385924     50.00777722 S
  atom       6.27014168     11.77017959     51.57012360 W
  atom       7.84760945     12.69546741     53.13430577 S
  atom       7.84758770     12.69544559     50.00586540 S
  #
  # What follows is the current estimated Hessian matrix constructed by the BFGS algorithm.
  # This is NOT the true Hessian matrix of the system.
  # If you do not want this information here, switch it off using the "hessian_to_restart_geometry" keyword.
  #
  trust_radius             0.0003487412
  hessian_file
  
  -----------------------------------------------------------------------
  Completed first pass over input file geometry.in .
  -----------------------------------------------------------------------
  

  Basic array size parameters:
  | Number of species                 :        4
  | Number of atoms                   :       73
  | Number of lattice vectors         :        3
  | Max. basis fn. angular momentum   :        4
  | Max. atomic/ionic basis occupied n:        6
  | Max. number of basis fn. types    :        3
  | Max. radial fns per species/type  :       14
  | Max. logarithmic grid size        :     1483
  | Max. radial integration grid size :      143
  | Max. angular integration grid size:      434
  | Max. angular grid division number :        8
  | Radial grid for Hartree potential :     1483
  | Number of spin channels           :        2

------------------------------------------------------------
          Reading file control.in.
------------------------------------------------------------

  XC: Using HSE-functional with OMEGA =  0.110000E+00 <units>.
  XC: For the actual units (bohr^-1 or Angstrom^-1), see below.
  hse_unit: Unit for the HSE06 hybrid functional screening parameter set to bohr^(-1).
  Spin treatment: Spin density functional theory - collinear spins.
  Initial spin moment per atom:   1.0000
  Charge =   0.000000E+00: Neutral system requested explicitly.
  Scalar relativistic treatment of kinetic energy: on-site free-atom approximation to ZORA.
  Calculating density of states with
  | energy interval :-10.000000  0.000000
  | points & tetrahedron method :  1001
  Calculating angular-momentum projected DOS with 
  | energy interval :-10.000000  0.000000
  | points & tetrahedron :  1001
  Occupation type: Gaussian broadening, width =   0.100000E+00 eV.
  Found k-point grid:         4         4         1
  Using dipole correction.
  Calculating non-self-consistent second-variational spin-orbit coupling after scf-cycle
  You have request a SOC run with spin-polarization.
  symmetry_reduced_k_grid will be turned off.
  Convergence accuracy of self-consistent charge density:  0.1000E-03
  Convergence accuracy of sum of eigenvalues:  0.1000E-02
  Convergence accuracy of total energy:  0.1000E-03
  Convergence accuracy of forces:  0.1000E-01
  Using libMBD for calculating MBD and TS energies
 
  Reading configuration options for species Se                  .
  | Found nuclear charge :  34.0000
  | Found atomic mass :    78.9600000000000      amu
  | Found l_max for Hartree potential  :   6
  | Found cutoff potl. onset [A], width [A], scale factor :    4.00000    2.00000    1.00000
  | Threshold for basis-dependent cutoff potential is   0.100000E-03
  | Found data for basic radial integration grid :    55 points, outermost radius =    7.000 A
  | Found multiplier for basic radial grid :   2
  | Found angular grid specification: user-specified.
  | Specified grid contains     5 separate shells.
  | Check grid settings after all constraints further below.
  | Found free-atom valence shell :  4 s   2.000
  | Found free-atom valence shell :  4 p   4.000
  | Found free-atom valence shell :  3 d  10.000
  | Found free-ion valence shell :  4 s   1.000
  | Found free-ion valence shell :  4 p   3.000
  | Found free-ion valence shell :  3 d  10.000
  | Found hydrogenic basis function :  3 d   4.300
  | Found hydrogenic basis function :  2 p   1.600
  | Found hydrogenic basis function :  4 f   7.200
  | Found ionic basis function :  4 s , default cutoff radius.
  Species Se                  : Missing cutoff potential type.
  Defaulting to exp(1/x)/(1-x)^2 type cutoff potential.
  Species Se: No 'logarithmic' tag. Using default grid for free atom:
  | Default logarithmic grid data [bohr] : 0.1000E-03 0.1000E+03 0.1012E+01
  | Will include ionic basis functions of  2.0-fold positive Se                   ion.
  Species Se: On-site basis accuracy parameter (for Gram-Schmidt orthonormalisation) not specified.
  Using default value basis_acc =  0.1000000E-03.
  Species Se                  : Using default innermost maximum threshold i_radial=  2 for radial functions.
  Species Se                  : Default cutoff onset for free atom density etc. : 0.40000000E+01 AA.
  Species Se                  : Basic radial grid will be enhanced according to radial_multiplier =   2, to contain   111 grid points.
 
  Reading configuration options for species S                   .
  | Found nuclear charge :  16.0000
  | Found atomic mass :    32.0650000000000      amu
  | Found l_max for Hartree potential  :   6
  | Found cutoff potl. onset [A], width [A], scale factor :    4.00000    2.00000    1.00000
  | Threshold for basis-dependent cutoff potential is   0.100000E-03
  | Found data for basic radial integration grid :    44 points, outermost radius =    7.000 A
  | Found multiplier for basic radial grid :   2
  | Found angular grid specification: user-specified.
  | Specified grid contains     5 separate shells.
  | Check grid settings after all constraints further below.
  | Found free-atom valence shell :  3 s   2.000
  | Found free-atom valence shell :  3 p   4.000
  | Found free-ion valence shell :  3 s   1.000
  | Found free-ion valence shell :  3 p   3.000
  | Found ionic basis function :  3 d , default cutoff radius.
  | Found hydrogenic basis function :  2 p   1.800
  | Found hydrogenic basis function :  4 f   7.000
  | Found ionic basis function :  3 s , default cutoff radius.
  | Found hydrogenic extended basis function :  5 g  10.800
  Species S                   : Missing cutoff potential type.
  Defaulting to exp(1/x)/(1-x)^2 type cutoff potential.
  Species S : No 'logarithmic' tag. Using default grid for free atom:
  | Default logarithmic grid data [bohr] : 0.1000E-03 0.1000E+03 0.1012E+01
  | Will include ionic basis functions of  2.0-fold positive S                    ion.
  Species S : On-site basis accuracy parameter (for Gram-Schmidt orthonormalisation) not specified.
  Using default value basis_acc =  0.1000000E-03.
  Species S                   : Using default innermost maximum threshold i_radial=  2 for radial functions.
  Species S                   : Default cutoff onset for free atom density etc. : 0.40000000E+01 AA.
  Species S                   : Basic radial grid will be enhanced according to radial_multiplier =   2, to contain    89 grid points.
 
  Reading configuration options for species Mo                  .
  | Found nuclear charge :  42.0000
  | Found atomic mass :    95.9400000000000      amu
  | Found l_max for Hartree potential  :   6
  | Found cutoff potl. onset [A], width [A], scale factor :    4.00000    2.00000    1.00000
  | Threshold for basis-dependent cutoff potential is   0.100000E-03
  | Found data for basic radial integration grid :    59 points, outermost radius =    7.000 A
  | Found multiplier for basic radial grid :   2
  | Found angular grid specification: user-specified.
  | Specified grid contains     6 separate shells.
  | Check grid settings after all constraints further below.
  | Found free-atom valence shell :  5 s   1.000
  | Found free-atom valence shell :  4 p   6.000
  | Found free-atom valence shell :  4 d   5.000
  | Found free-ion valence shell :  5 s   0.000
  | Found free-ion valence shell :  4 p   6.000
  | Found free-ion valence shell :  4 d   4.000
  | Found hydrogenic basis function :  4 f   8.400
  | Found hydrogenic basis function :  3 d   2.800
  | Found ionic basis function :  5 p , default cutoff radius.
  | Found hydrogenic extended basis function :  5 g  12.000
  | Found ionic basis function :  5 s , default cutoff radius.
  Species Mo                  : Missing cutoff potential type.
  Defaulting to exp(1/x)/(1-x)^2 type cutoff potential.
  Species Mo: No 'logarithmic' tag. Using default grid for free atom:
  | Default logarithmic grid data [bohr] : 0.1000E-03 0.1000E+03 0.1012E+01
  | Will include ionic basis functions of  2.0-fold positive Mo                   ion.
  Species Mo: On-site basis accuracy parameter (for Gram-Schmidt orthonormalisation) not specified.
  Using default value basis_acc =  0.1000000E-03.
  Species Mo                  : Using default innermost maximum threshold i_radial=  2 for radial functions.
  Species Mo                  : Default cutoff onset for free atom density etc. : 0.40000000E+01 AA.
  Species Mo                  : Basic radial grid will be enhanced according to radial_multiplier =   2, to contain   119 grid points.
 
  Reading configuration options for species W                   .
  | Found nuclear charge :  74.0000
  | Found atomic mass :    183.840000000000      amu
  | Found l_max for Hartree potential  :   6
  | Found cutoff potl. onset [A], width [A], scale factor :    4.00000    2.00000    1.00000
  | Threshold for basis-dependent cutoff potential is   0.100000E-03
  | Found data for basic radial integration grid :    71 points, outermost radius =    7.000 A
  | Found multiplier for basic radial grid :   2
  | Found angular grid specification: user-specified.
  | Specified grid contains     6 separate shells.
  | Check grid settings after all constraints further below.
  | Found free-atom valence shell :  6 s   2.000
  | Found free-atom valence shell :  5 p   6.000
  | Found free-atom valence shell :  5 d   4.000
  | Found free-atom valence shell :  4 f  14.000
  | Found free-ion valence shell :  6 s   1.000
  | Found free-ion valence shell :  5 p   6.000
  | Found free-ion valence shell :  5 d   3.000
  | Found free-ion valence shell :  4 f  14.000
  | Found hydrogenic basis function :  4 f   7.800
  | Found hydrogenic basis function :  4 d   5.800
  | Found ionic basis function :  6 p , default cutoff radius.
  | Found hydrogenic extended basis function :  5 g  12.400
  | Found ionic basis function :  6 s , default cutoff radius.
  Species W                   : Missing cutoff potential type.
  Defaulting to exp(1/x)/(1-x)^2 type cutoff potential.
  Species W : No 'logarithmic' tag. Using default grid for free atom:
  | Default logarithmic grid data [bohr] : 0.1000E-03 0.1000E+03 0.1012E+01
  | Will include ionic basis functions of  2.0-fold positive W                    ion.
  Species W : On-site basis accuracy parameter (for Gram-Schmidt orthonormalisation) not specified.
  Using default value basis_acc =  0.1000000E-03.
  Species W                   : Using default innermost maximum threshold i_radial=  2 for radial functions.
  Species W                   : Default cutoff onset for free atom density etc. : 0.40000000E+01 AA.
  Species W                   : Basic radial grid will be enhanced according to radial_multiplier =   2, to contain   143 grid points.
 
  Finished reading input file 'control.in'.
 
------------------------------------------------------------


------------------------------------------------------------
          Reading geometry description geometry.in.
------------------------------------------------------------
  Vacuum level in z-axis :   0.231500E-02
  Found keyword 'hessian_file', indicating that this is the continuation of a structure optimization.
  However, the control.in file does not request the geometry to be optimized.
  Ignoring the request for a file 'hessian.aims' to be present.
  | The smallest distance between any two atoms is         2.38874317 AA.
  | The first atom of this pair is atom number                     23 .
  | The second atom of this pair is atom number                    38 .
  | Wigner-Seitz cell of the first atom image           0     0     0 .
  | (The Wigner-Seitz cell of the second atom is 0 0 0  by definition.)

  Symmetry information by spglib:
  | Precision set to  0.1E-04
  | Number of Operations  : 1
  | Space group           : 1
  | International         : P1 R
  | Schoenflies           : C1^1
  Input structure read successfully.
  The structure contains       73 atoms,  and a total of       2618.000 electrons.

  Input geometry:
  | Unit cell:
  |       15.72847685        0.00000000        0.00000000
  |       -7.86461685       13.62035640        0.00000000
  |        0.00000000        0.00000000      103.13570646
  | Atomic structure:
  |       Atom                x [A]            y [A]            z [A]
  |    1: Species W             0.00233702        0.90597713       51.57007717
  |    2: Species S             1.57868250        1.83749067       53.13428947
  |    3: Species S             1.57867532        1.83747703       50.00582264
  |    4: Species W            -1.56715626        3.63480589       51.57009301
  |    5: Species S             0.01254118        4.54673432       53.13620443
  |    6: Species S             0.01251595        4.54674107       50.00393718
  |    7: Species W            -3.14587428        6.35831662       51.57009790
  |    8: Species S            -1.55089504        7.25755878       53.13430946
  |    9: Species S            -1.55090020        7.25755118       50.00586930
  |   10: Species W            -4.73206273        9.07232133       51.57008260
  |   11: Species S            -3.14594566        9.98113934       53.13168004
  |   12: Species S            -3.14593975        9.98113738       50.00843751
  |   13: Species W            -6.30470344       11.79580624       51.57010598
  |   14: Species S            -4.72450097       12.71487498       53.13170214
  |   15: Species S            -4.72451170       12.71486584       50.00843485
  |   16: Species W             3.14596831        0.92248831       51.57007969
  |   17: Species S             4.71849625        1.84271047       53.13241457
  |   18: Species S             4.71851637        1.84271329       50.00775437
  |   19: Species W             1.59122934        3.66615851       51.57005830
  |   20: Species S             3.18664956        4.64130345       53.13215334
  |   21: Species S             3.18667166        4.64134326       50.00800717
  |   22: Species W             0.03922364        6.35418483       51.57009238
  |   23: Species S             1.68156669        7.24803029       53.13212750
  |   24: Species S             1.68159353        7.24806309       50.00807410
  |   25: Species W            -1.55979733        9.07230841       51.57007657
  |   26: Species S             0.02352306        9.97387090       53.13240795
  |   27: Species S             0.02356597        9.97387685       50.00778355
  |   28: Species W            -3.14602465       11.80367074       51.57007268
  |   29: Species S            -1.56757849       12.71486025       53.13172374
  |   30: Species S            -1.56754901       12.71486591       50.00845213
  |   31: Species W             6.29108693        0.92248410       51.57010665
  |   32: Species S             7.85832691        1.83747629       53.13433479
  |   33: Species S             7.85835977        1.83747613       50.00586210
  |   34: Species W             4.71843993        3.68212710       51.57008891
  |   35: Species S             6.25018324        4.64130186       53.13214486
  |   36: Species S             6.25020416        4.64132435       50.00803801
  |   37: Species W             3.30148195        6.44541778       51.57012957
  |   38: Species W             1.61666416        9.05415672       51.57014514
  |   39: Species S             3.21327160        9.90096078       53.13219272
  |   40: Species S             3.21328693        9.90096903       50.00809960
  |   41: Species W             0.01267121       11.79582126       51.57011349
  |   42: Species S             1.58879223       12.69544898       53.13435162
  |   43: Species S             1.58882649       12.69545391       50.00590967
  |   44: Species W             9.43471398        0.90596902       51.57013633
  |   45: Species S            11.00774709        1.81414715       53.13560553
  |   46: Species S            11.00773933        1.81412774       50.00466237
  |   47: Species W             7.84563574        3.66615984       51.57011543
  |   48: Species S             9.42434192        4.54673664       53.13624828
  |   49: Species S             9.42433556        4.54672162       50.00397054
  |   50: Species W             6.13527533        6.44542478       51.57013295
  |   51: Species S             7.75515015        7.24804785       53.13214721
  |   52: Species S             7.75512420        7.24804993       50.00810100
  |   53: Species W             4.71829764        8.89943279       51.57015702
  |   54: Species S             6.22329744        9.90096376       53.13219609
  |   55: Species S             6.22326539        9.90093811       50.00807298
  |   56: Species W             3.16630858       11.77020431       51.57015058
  |   57: Species S             4.71823670       12.69709428       53.13629119
  |   58: Species S             4.71820449       12.69708779       50.00398521
  |   59: Species W            12.58274799        0.90070866       51.57013217
  |   60: Species S            14.15776370        1.81413154       53.13556838
  |   61: Species S            14.15772621        1.81412055       50.00461781
  |   62: Species W            11.00405650        3.63480321       51.57012115
  |   63: Species S            12.58267280        4.54196514       53.13556413
  |   64: Species S            12.58265702        4.54195348       50.00463551
  |   65: Species W             9.39752843        6.35416077       51.57010723
  |   66: Species S            10.98761034        7.25756638       53.13429372
  |   67: Species S            10.98760203        7.25754340       50.00585708
  |   68: Species W             7.81991933        9.05416335       51.57011771
  |   69: Species S             9.41303713        9.97386270       53.13240656
  |   70: Species S             9.41300215        9.97385924       50.00777722
  |   71: Species W             6.27014168       11.77017959       51.57012360
  |   72: Species S             7.84760945       12.69546741       53.13430577
  |   73: Species S             7.84758770       12.69544559       50.00586540

  Lattice parameters for 3D lattice (in Angstroms) :    15.728477   15.727883  103.135706
  Angle(s) between unit vectors (in degrees)       :    90.000000   90.000000  120.002841


  Quantities derived from the lattice vectors:
  | Reciprocal lattice vector 1:  0.399478  0.230665  0.000000
  | Reciprocal lattice vector 2:  0.000000  0.461308  0.000000
  | Reciprocal lattice vector 3:  0.000000  0.000000  0.060922
  | Unit cell volume                               :   0.220945E+05  A^3

  Fractional coordinates:
                         L1                L2                L3
       atom_frac         0.03340839        0.06651640        0.50002156  W
       atom_frac         0.16782806        0.13490768        0.51518811  S
       atom_frac         0.16782710        0.13490668        0.48485461  S
       atom_frac         0.03380112        0.26686570        0.50002172  W
       atom_frac         0.16771491        0.33381904        0.51520668  S
       atom_frac         0.16771355        0.33381954        0.48483633  S
       atom_frac         0.03341213        0.46682454        0.50002176  W
       atom_frac         0.16783178        0.53284647        0.51518830  S
       atom_frac         0.16783117        0.53284591        0.48485506  S
       atom_frac         0.03219919        0.66608546        0.50002162  W
       atom_frac         0.16640694        0.73281044        0.51516281  S
       atom_frac         0.16640724        0.73281029        0.48487996  S
       atom_frac         0.03219563        0.86604241        0.50002184  W
       atom_frac         0.16640366        0.93351999        0.51516302  S
       atom_frac         0.16640264        0.93351932        0.48487994  S
       atom_frac         0.23388331        0.06772865        0.50002159  W
       atom_frac         0.36764574        0.13529091        0.51516993  S
       atom_frac         0.36764712        0.13529112        0.48487334  S
       atom_frac         0.23575896        0.26916759        0.50002138  W
       atom_frac         0.37299315        0.34076226        0.51516740  S
       atom_frac         0.37299602        0.34076518        0.48487579  S
       atom_frac         0.23576562        0.46652119        0.50002171  W
       atom_frac         0.37299849        0.53214689        0.51516715  S
       atom_frac         0.37300140        0.53214930        0.48487644  S
       atom_frac         0.23388801        0.66608451        0.50002156  W
       atom_frac         0.36765159        0.73227679        0.51516986  S
       atom_frac         0.36765453        0.73227723        0.48487362  S
       atom_frac         0.23330982        0.86661981        0.50002152  W
       atom_frac         0.36711692        0.93351891        0.51516323  S
       atom_frac         0.36711901        0.93351932        0.48488010  S
       atom_frac         0.43384648        0.06772834        0.50002185  W
       atom_frac         0.56708071        0.13490662        0.51518855  S
       atom_frac         0.56708279        0.13490661        0.48485499  S
       atom_frac         0.43516995        0.27034000        0.50002168  W
       atom_frac         0.56776934        0.34076214        0.51516731  S
       atom_frac         0.56777150        0.34076380        0.48487609  S
       atom_frac         0.44652587        0.47321947        0.50002207  W
       atom_frac         0.43517771        0.66475182        0.50002222  W
       atom_frac         0.56777580        0.72692377        0.51516778  S
       atom_frac         0.56777708        0.72692437        0.48487669  S
       atom_frac         0.43384821        0.86604351        0.50002192  W
       atom_frac         0.56708304        0.93209374        0.51518871  S
       atom_frac         0.56708539        0.93209411        0.48485545  S
       atom_frac         0.63310869        0.06651581        0.50002214  W
       atom_frac         0.76646108        0.13319381        0.51520087  S
       atom_frac         0.76645987        0.13319238        0.48484336  S
       atom_frac         0.63340758        0.26916769        0.50002193  W
       atom_frac         0.76610738        0.33381921        0.51520710  S
       atom_frac         0.76610642        0.33381811        0.48483665  S
       atom_frac         0.62669572        0.47321998        0.50002210  W
       atom_frac         0.75915118        0.53214818        0.51516734  S
       atom_frac         0.75914960        0.53214833        0.48487670  S
       atom_frac         0.62669615        0.65339206        0.50002234  W
       atom_frac         0.75915018        0.72692399        0.51516781  S
       atom_frac         0.75914720        0.72692210        0.48487643  S
       atom_frac         0.63341272        0.86416273        0.50002228  W
       atom_frac         0.76611022        0.93221454        0.51520752  S
       atom_frac         0.76610794        0.93221406        0.48483679  S
       atom_frac         0.83306426        0.06612960        0.50002210  W
       atom_frac         0.96673525        0.13319266        0.51520051  S
       atom_frac         0.96673246        0.13319186        0.48484293  S
       atom_frac         0.83306550        0.26686550        0.50002199  W
       atom_frac         0.96673556        0.33346889        0.51520047  S
       atom_frac         0.96673413        0.33346803        0.48484310  S
       atom_frac         0.83075590        0.46651942        0.50002185  W
       atom_frac         0.96501703        0.53284702        0.51518815  S
       atom_frac         0.96501566        0.53284534        0.48485494  S
       atom_frac         0.82957439        0.66475231        0.50002196  W
       atom_frac         0.96462670        0.73227619        0.51516985  S
       atom_frac         0.96462435        0.73227594        0.48487356  S
       atom_frac         0.83075025        0.86416091        0.50002201  W
       atom_frac         0.96501272        0.93209510        0.51518827  S
       atom_frac         0.96501054        0.93209349        0.48485502  S

  Initial moments and charges:
  |  Atom   Moment         Charge        Species
  |     1   0.100000E+01   0.000000E+00   W
  |     2   0.100000E+01   0.000000E+00   S
  |     3   0.100000E+01   0.000000E+00   S
  |     4   0.100000E+01   0.000000E+00   W
  |     5   0.100000E+01   0.000000E+00   S
  |     6   0.100000E+01   0.000000E+00   S
  |     7   0.100000E+01   0.000000E+00   W
  |     8   0.100000E+01   0.000000E+00   S
  |     9   0.100000E+01   0.000000E+00   S
  |    10   0.100000E+01   0.000000E+00   W
  |    11   0.100000E+01   0.000000E+00   S
  |    12   0.100000E+01   0.000000E+00   S
  |    13   0.100000E+01   0.000000E+00   W
  |    14   0.100000E+01   0.000000E+00   S
  |    15   0.100000E+01   0.000000E+00   S
  |    16   0.100000E+01   0.000000E+00   W
  |    17   0.100000E+01   0.000000E+00   S
  |    18   0.100000E+01   0.000000E+00   S
  |    19   0.100000E+01   0.000000E+00   W
  |    20   0.100000E+01   0.000000E+00   S
  |    21   0.100000E+01   0.000000E+00   S
  |    22   0.100000E+01   0.000000E+00   W
  |    23   0.100000E+01   0.000000E+00   S
  |    24   0.100000E+01   0.000000E+00   S
  |    25   0.100000E+01   0.000000E+00   W
  |    26   0.100000E+01   0.000000E+00   S
  |    27   0.100000E+01   0.000000E+00   S
  |    28   0.100000E+01   0.000000E+00   W
  |    29   0.100000E+01   0.000000E+00   S
  |    30   0.100000E+01   0.000000E+00   S
  |    31   0.100000E+01   0.000000E+00   W
  |    32   0.100000E+01   0.000000E+00   S
  |    33   0.100000E+01   0.000000E+00   S
  |    34   0.100000E+01   0.000000E+00   W
  |    35   0.100000E+01   0.000000E+00   S
  |    36   0.100000E+01   0.000000E+00   S
  |    37   0.100000E+01   0.000000E+00   W
  |    38   0.100000E+01   0.000000E+00   W
  |    39   0.100000E+01   0.000000E+00   S
  |    40   0.100000E+01   0.000000E+00   S
  |    41   0.100000E+01   0.000000E+00   W
  |    42   0.100000E+01   0.000000E+00   S
  |    43   0.100000E+01   0.000000E+00   S
  |    44   0.100000E+01   0.000000E+00   W
  |    45   0.100000E+01   0.000000E+00   S
  |    46   0.100000E+01   0.000000E+00   S
  |    47   0.100000E+01   0.000000E+00   W
  |    48   0.100000E+01   0.000000E+00   S
  |    49   0.100000E+01   0.000000E+00   S
  |    50   0.100000E+01   0.000000E+00   W
  |    51   0.100000E+01   0.000000E+00   S
  |    52   0.100000E+01   0.000000E+00   S
  |    53   0.100000E+01   0.000000E+00   W
  |    54   0.100000E+01   0.000000E+00   S
  |    55   0.100000E+01   0.000000E+00   S
  |    56   0.100000E+01   0.000000E+00   W
  |    57   0.100000E+01   0.000000E+00   S
  |    58   0.100000E+01   0.000000E+00   S
  |    59   0.100000E+01   0.000000E+00   W
  |    60   0.100000E+01   0.000000E+00   S
  |    61   0.100000E+01   0.000000E+00   S
  |    62   0.100000E+01   0.000000E+00   W
  |    63   0.100000E+01   0.000000E+00   S
  |    64   0.100000E+01   0.000000E+00   S
  |    65   0.100000E+01   0.000000E+00   W
  |    66   0.100000E+01   0.000000E+00   S
  |    67   0.100000E+01   0.000000E+00   S
  |    68   0.100000E+01   0.000000E+00   W
  |    69   0.100000E+01   0.000000E+00   S
  |    70   0.100000E+01   0.000000E+00   S
  |    71   0.100000E+01   0.000000E+00   W
  |    72   0.100000E+01   0.000000E+00   S
  |    73   0.100000E+01   0.000000E+00   S

 
  Finished reading input file 'control.in'.
 

------------------------------------------------------------
          Reading geometry description geometry.in.
------------------------------------------------------------
 
  Consistency checks for stacksize environment parameter are next.
 
  | Maximum stacksize for task 0: unlimited
  | Maximum stacksize for task 1: unlimited
  | Maximum stacksize for task 2: unlimited
  | Maximum stacksize for task 3: unlimited
  | Maximum stacksize for task 4: unlimited
  | Maximum stacksize for task 5: unlimited
  | Maximum stacksize for task 6: unlimited
  | Maximum stacksize for task 7: unlimited
  | Maximum stacksize for task 8: unlimited
  | Maximum stacksize for task 9: unlimited
  | Maximum stacksize for task 10: unlimited
  | Maximum stacksize for task 11: unlimited
  | Maximum stacksize for task 12: unlimited
  | Maximum stacksize for task 13: unlimited
  | Maximum stacksize for task 14: unlimited
  | Maximum stacksize for task 15: unlimited
  | Maximum stacksize for task 16: unlimited
  | Maximum stacksize for task 17: unlimited
  | Maximum stacksize for task 18: unlimited
  | Maximum stacksize for task 19: unlimited
  | Maximum stacksize for task 20: unlimited
  | Maximum stacksize for task 21: unlimited
  | Maximum stacksize for task 22: unlimited
  | Maximum stacksize for task 23: unlimited
  | Maximum stacksize for task 24: unlimited
  | Maximum stacksize for task 25: unlimited
  | Maximum stacksize for task 26: unlimited
  | Maximum stacksize for task 27: unlimited
  | Maximum stacksize for task 28: unlimited
  | Maximum stacksize for task 29: unlimited
  | Maximum stacksize for task 30: unlimited
  | Maximum stacksize for task 31: unlimited
  | Maximum stacksize for task 32: unlimited
  | Maximum stacksize for task 33: unlimited
  | Maximum stacksize for task 34: unlimited
  | Maximum stacksize for task 35: unlimited
  | Maximum stacksize for task 36: unlimited
  | Maximum stacksize for task 37: unlimited
  | Maximum stacksize for task 38: unlimited
  | Maximum stacksize for task 39: unlimited
  | Maximum stacksize for task 40: unlimited
  | Maximum stacksize for task 41: unlimited
  | Maximum stacksize for task 42: unlimited
  | Maximum stacksize for task 43: unlimited
  | Maximum stacksize for task 44: unlimited
  | Maximum stacksize for task 45: unlimited
  | Maximum stacksize for task 46: unlimited
  | Maximum stacksize for task 47: unlimited
  | Maximum stacksize for task 48: unlimited
  | Maximum stacksize for task 49: unlimited
  | Maximum stacksize for task 50: unlimited
  | Maximum stacksize for task 51: unlimited
  | Maximum stacksize for task 52: unlimited
  | Maximum stacksize for task 53: unlimited
  | Maximum stacksize for task 54: unlimited
  | Maximum stacksize for task 55: unlimited
  | Maximum stacksize for task 56: unlimited
  | Maximum stacksize for task 57: unlimited
  | Maximum stacksize for task 58: unlimited
  | Maximum stacksize for task 59: unlimited
  | Maximum stacksize for task 60: unlimited
  | Maximum stacksize for task 61: unlimited
  | Maximum stacksize for task 62: unlimited
  | Maximum stacksize for task 63: unlimited
  | Maximum stacksize for task 64: unlimited
  | Maximum stacksize for task 65: unlimited
  | Maximum stacksize for task 66: unlimited
  | Maximum stacksize for task 67: unlimited
  | Maximum stacksize for task 68: unlimited
  | Maximum stacksize for task 69: unlimited
  | Maximum stacksize for task 70: unlimited
  | Maximum stacksize for task 71: unlimited
  | Maximum stacksize for task 72: unlimited
  | Maximum stacksize for task 73: unlimited
  | Maximum stacksize for task 74: unlimited
  | Maximum stacksize for task 75: unlimited
  | Maximum stacksize for task 76: unlimited
  | Maximum stacksize for task 77: unlimited
  | Maximum stacksize for task 78: unlimited
  | Maximum stacksize for task 79: unlimited
  | Maximum stacksize for task 80: unlimited
  | Maximum stacksize for task 81: unlimited
  | Maximum stacksize for task 82: unlimited
  | Maximum stacksize for task 83: unlimited
  | Maximum stacksize for task 84: unlimited
  | Maximum stacksize for task 85: unlimited
  | Maximum stacksize for task 86: unlimited
  | Maximum stacksize for task 87: unlimited
  | Maximum stacksize for task 88: unlimited
  | Maximum stacksize for task 89: unlimited
  | Maximum stacksize for task 90: unlimited
  | Maximum stacksize for task 91: unlimited
  | Maximum stacksize for task 92: unlimited
  | Maximum stacksize for task 93: unlimited
  | Maximum stacksize for task 94: unlimited
  | Maximum stacksize for task 95: unlimited
  | Maximum stacksize for task 96: unlimited
  | Maximum stacksize for task 97: unlimited
  | Maximum stacksize for task 98: unlimited
  | Maximum stacksize for task 99: unlimited
  | Maximum stacksize for task 100: unlimited
  | Maximum stacksize for task 101: unlimited
  | Maximum stacksize for task 102: unlimited
  | Maximum stacksize for task 103: unlimited
  | Maximum stacksize for task 104: unlimited
  | Maximum stacksize for task 105: unlimited
  | Maximum stacksize for task 106: unlimited
  | Maximum stacksize for task 107: unlimited
  | Maximum stacksize for task 108: unlimited
  | Maximum stacksize for task 109: unlimited
  | Maximum stacksize for task 110: unlimited
  | Maximum stacksize for task 111: unlimited
  | Maximum stacksize for task 112: unlimited
  | Maximum stacksize for task 113: unlimited
  | Maximum stacksize for task 114: unlimited
  | Maximum stacksize for task 115: unlimited
  | Maximum stacksize for task 116: unlimited
  | Maximum stacksize for task 117: unlimited
  | Maximum stacksize for task 118: unlimited
  | Maximum stacksize for task 119: unlimited
  | Maximum stacksize for task 120: unlimited
  | Maximum stacksize for task 121: unlimited
  | Maximum stacksize for task 122: unlimited
  | Maximum stacksize for task 123: unlimited
  | Maximum stacksize for task 124: unlimited
  | Maximum stacksize for task 125: unlimited
  | Maximum stacksize for task 126: unlimited
  | Maximum stacksize for task 127: unlimited
  | Maximum stacksize for task 128: unlimited
  | Maximum stacksize for task 129: unlimited
  | Maximum stacksize for task 130: unlimited
  | Maximum stacksize for task 131: unlimited
  | Maximum stacksize for task 132: unlimited
  | Maximum stacksize for task 133: unlimited
  | Maximum stacksize for task 134: unlimited
  | Maximum stacksize for task 135: unlimited
  | Maximum stacksize for task 136: unlimited
  | Maximum stacksize for task 137: unlimited
  | Maximum stacksize for task 138: unlimited
  | Maximum stacksize for task 139: unlimited
  | Maximum stacksize for task 140: unlimited
  | Maximum stacksize for task 141: unlimited
  | Maximum stacksize for task 142: unlimited
  | Maximum stacksize for task 143: unlimited
  | Maximum stacksize for task 144: unlimited
  | Maximum stacksize for task 145: unlimited
  | Maximum stacksize for task 146: unlimited
  | Maximum stacksize for task 147: unlimited
  | Maximum stacksize for task 148: unlimited
  | Maximum stacksize for task 149: unlimited
  | Maximum stacksize for task 150: unlimited
  | Maximum stacksize for task 151: unlimited
  | Maximum stacksize for task 152: unlimited
  | Maximum stacksize for task 153: unlimited
  | Maximum stacksize for task 154: unlimited
  | Maximum stacksize for task 155: unlimited
  | Maximum stacksize for task 156: unlimited
  | Maximum stacksize for task 157: unlimited
  | Maximum stacksize for task 158: unlimited
  | Maximum stacksize for task 159: unlimited
  | Maximum stacksize for task 160: unlimited
  | Maximum stacksize for task 161: unlimited
  | Maximum stacksize for task 162: unlimited
  | Maximum stacksize for task 163: unlimited
  | Maximum stacksize for task 164: unlimited
  | Maximum stacksize for task 165: unlimited
  | Maximum stacksize for task 166: unlimited
  | Maximum stacksize for task 167: unlimited
  | Maximum stacksize for task 168: unlimited
  | Maximum stacksize for task 169: unlimited
  | Maximum stacksize for task 170: unlimited
  | Maximum stacksize for task 171: unlimited
  | Maximum stacksize for task 172: unlimited
  | Maximum stacksize for task 173: unlimited
  | Maximum stacksize for task 174: unlimited
  | Maximum stacksize for task 175: unlimited
  | Maximum stacksize for task 176: unlimited
  | Maximum stacksize for task 177: unlimited
  | Maximum stacksize for task 178: unlimited
  | Maximum stacksize for task 179: unlimited
  | Maximum stacksize for task 180: unlimited
  | Maximum stacksize for task 181: unlimited
  | Maximum stacksize for task 182: unlimited
  | Maximum stacksize for task 183: unlimited
  | Maximum stacksize for task 184: unlimited
  | Maximum stacksize for task 185: unlimited
  | Maximum stacksize for task 186: unlimited
  | Maximum stacksize for task 187: unlimited
  | Maximum stacksize for task 188: unlimited
  | Maximum stacksize for task 189: unlimited
  | Maximum stacksize for task 190: unlimited
  | Maximum stacksize for task 191: unlimited
  | Maximum stacksize for task 192: unlimited
  | Maximum stacksize for task 193: unlimited
  | Maximum stacksize for task 194: unlimited
  | Maximum stacksize for task 195: unlimited
  | Maximum stacksize for task 196: unlimited
  | Maximum stacksize for task 197: unlimited
  | Maximum stacksize for task 198: unlimited
  | Maximum stacksize for task 199: unlimited
  | Maximum stacksize for task 200: unlimited
  | Maximum stacksize for task 201: unlimited
  | Maximum stacksize for task 202: unlimited
  | Maximum stacksize for task 203: unlimited
  | Maximum stacksize for task 204: unlimited
  | Maximum stacksize for task 205: unlimited
  | Maximum stacksize for task 206: unlimited
  | Maximum stacksize for task 207: unlimited
  | Maximum stacksize for task 208: unlimited
  | Maximum stacksize for task 209: unlimited
  | Maximum stacksize for task 210: unlimited
  | Maximum stacksize for task 211: unlimited
  | Maximum stacksize for task 212: unlimited
  | Maximum stacksize for task 213: unlimited
  | Maximum stacksize for task 214: unlimited
  | Maximum stacksize for task 215: unlimited
  | Maximum stacksize for task 216: unlimited
  | Maximum stacksize for task 217: unlimited
  | Maximum stacksize for task 218: unlimited
  | Maximum stacksize for task 219: unlimited
  | Maximum stacksize for task 220: unlimited
  | Maximum stacksize for task 221: unlimited
  | Maximum stacksize for task 222: unlimited
  | Maximum stacksize for task 223: unlimited
  | Maximum stacksize for task 224: unlimited
  | Maximum stacksize for task 225: unlimited
  | Maximum stacksize for task 226: unlimited
  | Maximum stacksize for task 227: unlimited
  | Maximum stacksize for task 228: unlimited
  | Maximum stacksize for task 229: unlimited
  | Maximum stacksize for task 230: unlimited
  | Maximum stacksize for task 231: unlimited
  | Maximum stacksize for task 232: unlimited
  | Maximum stacksize for task 233: unlimited
  | Maximum stacksize for task 234: unlimited
  | Maximum stacksize for task 235: unlimited
  | Maximum stacksize for task 236: unlimited
  | Maximum stacksize for task 237: unlimited
  | Maximum stacksize for task 238: unlimited
  | Maximum stacksize for task 239: unlimited
  | Maximum stacksize for task 240: unlimited
  | Maximum stacksize for task 241: unlimited
  | Maximum stacksize for task 242: unlimited
  | Maximum stacksize for task 243: unlimited
  | Maximum stacksize for task 244: unlimited
  | Maximum stacksize for task 245: unlimited
  | Maximum stacksize for task 246: unlimited
  | Maximum stacksize for task 247: unlimited
  | Maximum stacksize for task 248: unlimited
  | Maximum stacksize for task 249: unlimited
  | Maximum stacksize for task 250: unlimited
  | Maximum stacksize for task 251: unlimited
  | Maximum stacksize for task 252: unlimited
  | Maximum stacksize for task 253: unlimited
  | Maximum stacksize for task 254: unlimited
  | Maximum stacksize for task 255: unlimited
  | Maximum stacksize for task 256: unlimited
  | Maximum stacksize for task 257: unlimited
  | Maximum stacksize for task 258: unlimited
  | Maximum stacksize for task 259: unlimited
  | Maximum stacksize for task 260: unlimited
  | Maximum stacksize for task 261: unlimited
  | Maximum stacksize for task 262: unlimited
  | Maximum stacksize for task 263: unlimited
  | Maximum stacksize for task 264: unlimited
  | Maximum stacksize for task 265: unlimited
  | Maximum stacksize for task 266: unlimited
  | Maximum stacksize for task 267: unlimited
  | Maximum stacksize for task 268: unlimited
  | Maximum stacksize for task 269: unlimited
  | Maximum stacksize for task 270: unlimited
  | Maximum stacksize for task 271: unlimited
  | Maximum stacksize for task 272: unlimited
  | Maximum stacksize for task 273: unlimited
  | Maximum stacksize for task 274: unlimited
  | Maximum stacksize for task 275: unlimited
  | Maximum stacksize for task 276: unlimited
  | Maximum stacksize for task 277: unlimited
  | Maximum stacksize for task 278: unlimited
  | Maximum stacksize for task 279: unlimited
  | Maximum stacksize for task 280: unlimited
  | Maximum stacksize for task 281: unlimited
  | Maximum stacksize for task 282: unlimited
  | Maximum stacksize for task 283: unlimited
  | Maximum stacksize for task 284: unlimited
  | Maximum stacksize for task 285: unlimited
  | Maximum stacksize for task 286: unlimited
  | Maximum stacksize for task 287: unlimited
  | Current stacksize for task 0: unlimited
  | Current stacksize for task 1: unlimited
  | Current stacksize for task 2: unlimited
  | Current stacksize for task 3: unlimited
  | Current stacksize for task 4: unlimited
  | Current stacksize for task 5: unlimited
  | Current stacksize for task 6: unlimited
  | Current stacksize for task 7: unlimited
  | Current stacksize for task 8: unlimited
  | Current stacksize for task 9: unlimited
  | Current stacksize for task 10: unlimited
  | Current stacksize for task 11: unlimited
  | Current stacksize for task 12: unlimited
  | Current stacksize for task 13: unlimited
  | Current stacksize for task 14: unlimited
  | Current stacksize for task 15: unlimited
  | Current stacksize for task 16: unlimited
  | Current stacksize for task 17: unlimited
  | Current stacksize for task 18: unlimited
  | Current stacksize for task 19: unlimited
  | Current stacksize for task 20: unlimited
  | Current stacksize for task 21: unlimited
  | Current stacksize for task 22: unlimited
  | Current stacksize for task 23: unlimited
  | Current stacksize for task 24: unlimited
  | Current stacksize for task 25: unlimited
  | Current stacksize for task 26: unlimited
  | Current stacksize for task 27: unlimited
  | Current stacksize for task 28: unlimited
  | Current stacksize for task 29: unlimited
  | Current stacksize for task 30: unlimited
  | Current stacksize for task 31: unlimited
  | Current stacksize for task 32: unlimited
  | Current stacksize for task 33: unlimited
  | Current stacksize for task 34: unlimited
  | Current stacksize for task 35: unlimited
  | Current stacksize for task 36: unlimited
  | Current stacksize for task 37: unlimited
  | Current stacksize for task 38: unlimited
  | Current stacksize for task 39: unlimited
  | Current stacksize for task 40: unlimited
  | Current stacksize for task 41: unlimited
  | Current stacksize for task 42: unlimited
  | Current stacksize for task 43: unlimited
  | Current stacksize for task 44: unlimited
  | Current stacksize for task 45: unlimited
  | Current stacksize for task 46: unlimited
  | Current stacksize for task 47: unlimited
  | Current stacksize for task 48: unlimited
  | Current stacksize for task 49: unlimited
  | Current stacksize for task 50: unlimited
  | Current stacksize for task 51: unlimited
  | Current stacksize for task 52: unlimited
  | Current stacksize for task 53: unlimited
  | Current stacksize for task 54: unlimited
  | Current stacksize for task 55: unlimited
  | Current stacksize for task 56: unlimited
  | Current stacksize for task 57: unlimited
  | Current stacksize for task 58: unlimited
  | Current stacksize for task 59: unlimited
  | Current stacksize for task 60: unlimited
  | Current stacksize for task 61: unlimited
  | Current stacksize for task 62: unlimited
  | Current stacksize for task 63: unlimited
  | Current stacksize for task 64: unlimited
  | Current stacksize for task 65: unlimited
  | Current stacksize for task 66: unlimited
  | Current stacksize for task 67: unlimited
  | Current stacksize for task 68: unlimited
  | Current stacksize for task 69: unlimited
  | Current stacksize for task 70: unlimited
  | Current stacksize for task 71: unlimited
  | Current stacksize for task 72: unlimited
  | Current stacksize for task 73: unlimited
  | Current stacksize for task 74: unlimited
  | Current stacksize for task 75: unlimited
  | Current stacksize for task 76: unlimited
  | Current stacksize for task 77: unlimited
  | Current stacksize for task 78: unlimited
  | Current stacksize for task 79: unlimited
  | Current stacksize for task 80: unlimited
  | Current stacksize for task 81: unlimited
  | Current stacksize for task 82: unlimited
  | Current stacksize for task 83: unlimited
  | Current stacksize for task 84: unlimited
  | Current stacksize for task 85: unlimited
  | Current stacksize for task 86: unlimited
  | Current stacksize for task 87: unlimited
  | Current stacksize for task 88: unlimited
  | Current stacksize for task 89: unlimited
  | Current stacksize for task 90: unlimited
  | Current stacksize for task 91: unlimited
  | Current stacksize for task 92: unlimited
  | Current stacksize for task 93: unlimited
  | Current stacksize for task 94: unlimited
  | Current stacksize for task 95: unlimited
  | Current stacksize for task 96: unlimited
  | Current stacksize for task 97: unlimited
  | Current stacksize for task 98: unlimited
  | Current stacksize for task 99: unlimited
  | Current stacksize for task 100: unlimited
  | Current stacksize for task 101: unlimited
  | Current stacksize for task 102: unlimited
  | Current stacksize for task 103: unlimited
  | Current stacksize for task 104: unlimited
  | Current stacksize for task 105: unlimited
  | Current stacksize for task 106: unlimited
  | Current stacksize for task 107: unlimited
  | Current stacksize for task 108: unlimited
  | Current stacksize for task 109: unlimited
  | Current stacksize for task 110: unlimited
  | Current stacksize for task 111: unlimited
  | Current stacksize for task 112: unlimited
  | Current stacksize for task 113: unlimited
  | Current stacksize for task 114: unlimited
  | Current stacksize for task 115: unlimited
  | Current stacksize for task 116: unlimited
  | Current stacksize for task 117: unlimited
  | Current stacksize for task 118: unlimited
  | Current stacksize for task 119: unlimited
  | Current stacksize for task 120: unlimited
  | Current stacksize for task 121: unlimited
  | Current stacksize for task 122: unlimited
  | Current stacksize for task 123: unlimited
  | Current stacksize for task 124: unlimited
[...]
  |    30       16.238655       -0.238655        5.862221       10.085327        0.245405        0.045702
  |    31       73.525224        0.474776       10.278285       24.723488       24.380759       14.142692
  |    32       16.242469       -0.242469        5.861674       10.090091        0.245084        0.045621
  |    33       16.242470       -0.242470        5.861679       10.090102        0.245071        0.045619
  |    34       73.569966        0.430034       10.281116       24.729813       24.414560       14.144477
  |    35       16.234455       -0.234455        5.860804       10.076947        0.251340        0.045364
  |    36       16.234457       -0.234457        5.860810       10.076958        0.251327        0.045362
  |    37       73.632715        0.367285       10.407000       24.727071       24.393898       14.104745
  |    38       73.570174        0.429826       10.281039       24.729938       24.414715       14.144482
  |    39       16.234384       -0.234384        5.860815       10.076886        0.251324        0.045359
  |    40       16.234384       -0.234384        5.860816       10.076881        0.251327        0.045359
  |    41       73.525250        0.474750       10.278271       24.723550       24.380736       14.142693
  |    42       16.242491       -0.242491        5.861688       10.090110        0.245075        0.045618
  |    43       16.242496       -0.242496        5.861689       10.090111        0.245077        0.045619
  |    44       73.515904        0.484096       10.273561       24.719633       24.382143       14.140567
  |    45       16.240137       -0.240137        5.861706       10.083722        0.248285        0.046426
  |    46       16.240151       -0.240151        5.861707       10.083725        0.248292        0.046427
  |    47       73.523082        0.476918       10.268681       24.714209       24.403681       14.136511
  |    48       16.241540       -0.241540        5.861028       10.080161        0.253151        0.047201
  |    49       16.241552       -0.241552        5.861031       10.080171        0.253150        0.047201
  |    50       73.632679        0.367321       10.406989       24.727058       24.393885       14.104747
  |    51       16.234440       -0.234440        5.860831       10.076921        0.251328        0.045359
  |    52       16.234447       -0.234447        5.860831       10.076920        0.251335        0.045361
  |    53       73.632708        0.367292       10.407430       24.726932       24.393606       14.104740
  |    54       16.234383       -0.234383        5.860818       10.076887        0.251320        0.045358
  |    55       16.234394       -0.234394        5.860818       10.076892        0.251324        0.045359
  |    56       73.523360        0.476640       10.268821       24.714217       24.403814       14.136508
  |    57       16.241401       -0.241401        5.861001       10.080067        0.253138        0.047195
  |    58       16.241414       -0.241414        5.861002       10.080072        0.253144        0.047196
  |    59       73.516161        0.483839       10.272472       24.718553       24.384097       14.141040
  |    60       16.240141       -0.240141        5.861706       10.083722        0.248287        0.046426
  |    61       16.240143       -0.240143        5.861708       10.083729        0.248281        0.046425
  |    62       73.516096        0.483904       10.272399       24.718599       24.384057       14.141041
  |    63       16.240206       -0.240206        5.861723       10.083762        0.248293        0.046428
  |    64       16.240210       -0.240210        5.861724       10.083766        0.248292        0.046428
  |    65       73.523176        0.476824       10.268694       24.714276       24.403694       14.136511
  |    66       16.242589       -0.242589        5.861719       10.090150        0.245096        0.045624
  |    67       16.242584       -0.242584        5.861725       10.090159        0.245080        0.045621
  |    68       73.570181        0.429819       10.281037       24.729940       24.414722       14.144482
  |    69       16.239615       -0.239615        5.862586       10.088556        0.243515        0.044958
  |    70       16.239618       -0.239618        5.862590       10.088563        0.243508        0.044956
  |    71       73.523351        0.476649       10.268822       24.714216       24.403805       14.136508
  |    72       16.242493       -0.242493        5.861688       10.090107        0.245079        0.045619
  |    73       16.242495       -0.242495        5.861693       10.090118        0.245067        0.045617
  |
  | Total     2618.000000       -0.000000
 
  Summary of the per-atom spin analysis:
  |
  |  atom   spin      l=0         l=1         l=2         l=3
  |     1    0.000000    0.000000    0.000000    0.000000    0.000000
  |     2   -0.000000   -0.000000   -0.000000    0.000000    0.000000
  |     3   -0.000000   -0.000000   -0.000000    0.000000    0.000000
  |     4    0.000000    0.000000    0.000000    0.000000    0.000000
  |     5   -0.000000   -0.000000   -0.000000    0.000000    0.000000
  |     6   -0.000000   -0.000000   -0.000000    0.000000    0.000000
  |     7    0.000000    0.000000    0.000000    0.000000    0.000000
  |     8   -0.000000   -0.000000   -0.000000    0.000000    0.000000
  |     9   -0.000000   -0.000000   -0.000000    0.000000    0.000000
  |    10    0.000000    0.000000    0.000000    0.000000    0.000000
  |    11   -0.000000   -0.000000   -0.000000    0.000000    0.000000
  |    12   -0.000000   -0.000000   -0.000000    0.000000    0.000000
  |    13    0.000000    0.000000    0.000000    0.000000    0.000000
  |    14   -0.000000   -0.000000   -0.000000    0.000000    0.000000
  |    15   -0.000000   -0.000000   -0.000000    0.000000    0.000000
  |    16    0.000000    0.000000    0.000000    0.000000    0.000000
  |    17   -0.000000   -0.000000   -0.000000    0.000000    0.000000
  |    18   -0.000000   -0.000000   -0.000000    0.000000    0.000000
  |    19    0.000000    0.000000    0.000000    0.000000   -0.000000
  |    20   -0.000000   -0.000000   -0.000000    0.000000    0.000000
  |    21   -0.000000   -0.000000   -0.000000    0.000000    0.000000
  |    22    0.000000    0.000000    0.000000    0.000000   -0.000000
  |    23   -0.000000   -0.000000   -0.000000    0.000000    0.000000
  |    24   -0.000000   -0.000000   -0.000000    0.000000    0.000000
  |    25    0.000000    0.000000    0.000000    0.000000    0.000000
  |    26   -0.000000   -0.000000   -0.000000    0.000000    0.000000
  |    27   -0.000000   -0.000000   -0.000000    0.000000    0.000000
  |    28    0.000000    0.000000    0.000000    0.000000   -0.000000
  |    29   -0.000000   -0.000000   -0.000000    0.000000    0.000000
  |    30   -0.000000   -0.000000   -0.000000    0.000000    0.000000
  |    31    0.000000    0.000000    0.000000    0.000000    0.000000
  |    32   -0.000000   -0.000000   -0.000000    0.000000    0.000000
  |    33   -0.000000   -0.000000   -0.000000    0.000000    0.000000
  |    34    0.000001    0.000000    0.000000    0.000000   -0.000000
  |    35   -0.000000   -0.000000   -0.000000    0.000000    0.000000
  |    36   -0.000000   -0.000000   -0.000000    0.000000    0.000000
  |    37    0.000000    0.000000   -0.000000    0.000000   -0.000000
  |    38    0.000001    0.000000    0.000000    0.000000   -0.000000
  |    39   -0.000000   -0.000000   -0.000000    0.000000    0.000000
  |    40   -0.000000   -0.000000   -0.000000    0.000000    0.000000
  |    41    0.000000    0.000000    0.000000    0.000000    0.000000
  |    42   -0.000000   -0.000000   -0.000000    0.000000    0.000000
  |    43   -0.000000   -0.000000   -0.000000    0.000000    0.000000
  |    44    0.000000    0.000000    0.000000    0.000000    0.000000
  |    45   -0.000000   -0.000000   -0.000000    0.000000    0.000000
  |    46   -0.000000   -0.000000   -0.000000    0.000000    0.000000
  |    47    0.000000    0.000000    0.000000    0.000000   -0.000000
  |    48   -0.000000   -0.000000   -0.000000    0.000000    0.000000
  |    49   -0.000000   -0.000000   -0.000000    0.000000    0.000000
  |    50    0.000000    0.000000   -0.000000    0.000000   -0.000000
  |    51   -0.000000   -0.000000   -0.000000    0.000000    0.000000
  |    52   -0.000000   -0.000000   -0.000000    0.000000    0.000000
  |    53    0.000000    0.000000   -0.000000    0.000000   -0.000000
  |    54   -0.000000   -0.000000   -0.000000    0.000000    0.000000
  |    55   -0.000000   -0.000000   -0.000000    0.000000    0.000000
  |    56    0.000000    0.000000    0.000000    0.000000   -0.000000
  |    57   -0.000000   -0.000000   -0.000000    0.000000    0.000000
  |    58   -0.000000   -0.000000   -0.000000    0.000000    0.000000
  |    59    0.000000    0.000000    0.000000    0.000000    0.000000
  |    60   -0.000000   -0.000000   -0.000000    0.000000    0.000000
  |    61   -0.000000   -0.000000   -0.000000    0.000000    0.000000
  |    62    0.000000    0.000000    0.000000    0.000000    0.000000
  |    63   -0.000000   -0.000000   -0.000000    0.000000    0.000000
  |    64   -0.000000   -0.000000   -0.000000    0.000000    0.000000
  |    65    0.000000    0.000000    0.000000    0.000000   -0.000000
  |    66   -0.000000   -0.000000   -0.000000    0.000000    0.000000
  |    67   -0.000000   -0.000000   -0.000000    0.000000    0.000000
  |    68    0.000001    0.000000    0.000000    0.000000   -0.000000
  |    69   -0.000000   -0.000000   -0.000000    0.000000    0.000000
  |    70   -0.000000   -0.000000   -0.000000    0.000000    0.000000
  |    71    0.000000    0.000000    0.000000    0.000000   -0.000000
  |    72   -0.000000   -0.000000   -0.000000    0.000000    0.000000
  |    73   -0.000000   -0.000000   -0.000000    0.000000    0.000000
  |
  | Total   -0.000000
 
  Calculating angular momentum projected density of states ...
  | Chemical potential is  -5.473117 eV.
  | writing   projected DOS (shifted by the chemical potential) for species Se to file Se_l_proj_dos_tetrahedron.dat.
  | writing   projected DOS (raw data) for species Se to file Se_l_proj_dos_tetrahedron_raw.dat.
  | writing   projected DOS (shifted by the chemical potential) for species S to file S_l_proj_dos_tetrahedron.dat.
  | writing   projected DOS (raw data) for species S to file S_l_proj_dos_tetrahedron_raw.dat.
  | writing   projected DOS (shifted by the chemical potential) for species Mo to file Mo_l_proj_dos_tetrahedron.dat.
  | writing   projected DOS (raw data) for species Mo to file Mo_l_proj_dos_tetrahedron_raw.dat.
  | writing   projected DOS (shifted by the chemical potential) for species W to file W_l_proj_dos_tetrahedron.dat.
  | writing   projected DOS (raw data) for species W to file W_l_proj_dos_tetrahedron_raw.dat.

  Mulliken analysis                                       :  max(cpu_time)    wall_clock(cpu1)
  | Time for Mulliken analysis (scalar relativistic)      :          0.668               0.723
  | Time for Mulliken analysis (spin-orbit coupled)       :          1.681               1.688
  | Total time for Mulliken analysis                      :          2.349               2.411
------------------------------------------------------------

------------------------------------------------------------------------------
  Final output of selected total energy values:

  The following output summarizes some interesting total energy values
  at the end of a run (AFTER all relaxation, molecular dynamics, etc.).

  | Total energy of the DFT / Hartree-Fock s.c.f. calculation      :      -11839574.248282541 eV
  | Final zero-broadening corrected energy (caution - metals only) :      -11839574.248282541 eV
  | Total energy after non-SC SOC correction (DO NOT USE)          :      -11839604.360817641 eV
  | For reference only, the value of 1 Hartree used in FHI-aims is :             27.211384500 eV
  | For reference only, the overall average (free atom contribution
  | + realspace contribution) of the electrostatic potential after
  | s.c.f. convergence is                                          :             -1.191140037 eV

  Before relying on these values, please be sure to understand exactly which
  total energy value is referred to by a given number. Different objects may
  all carry the same name 'total energy'. Definitions:

  Total energy of the DFT / Hartree-Fock s.c.f. calculation:
  | Note that this energy does not include ANY quantities calculated after the
  | s.c.f. cycle, in particular not ANY RPA, MP2, etc. many-body perturbation terms.

  Final zero-broadening corrected energy:
  | For metallic systems only, a broadening of the occupation numbers at the Fermi
  | level can be extrapolated back to zero broadening by an electron-gas inspired
  | formula. For all systems that are not real metals, this value can be
  | meaningless and should be avoided.

------------------------------------------------------------------------------
  Methods described in the following list of references were used in this FHI-aims run.
  If you publish the results, please make sure to cite these reference if they apply.
  FHI-aims is an academic code, and for our developers (often, Ph.D. students
  and postdocs), scientific credit in the community is essential.
  Thank you for helping us!

  For any use of FHI-aims, please cite:

    Volker Blum, Ralf Gehrke, Felix Hanke, Paula Havu, Ville Havu,
    Xinguo Ren, Karsten Reuter, and Matthias Scheffler
    'Ab initio molecular simulations with numeric atom-centered orbitals'
    Computer Physics Communications 180, 2175-2196 (2009)
    http://doi.org/10.1016/j.cpc.2009.06.022


  For Hartree-Fock, hybrid functionals, or many-body perturbation theory used in your run, please cite:

    Xinguo Ren, Patrick Rinke, Volker Blum, Juergen Wieferink, Alex Tkatchenko,
    Andrea Sanfilippo, Karsten Reuter, and Matthias Scheffler,
    'Resolution-of-identity approach to Hartree-Fock, hybrid density functionals,
    RPA, MP2, and GW with numeric atom-centered orbital basis functions'
    New Journal of Physics 14, 053020 (2012).
    http://doi.org/10.1088/1367-2630/14/5/053020


  The provided symmetry information was generated with SPGlib:

    Atsushi Togo, Yusuke Seto, Dimitar Pashov
    SPGlib 1.7.3 obtained from http://spglib.sourceforge.net
    Copyright (C) 2008 Atsushi Togo


  For second-variational spin-orbit coupling used in your run, please cite:

    William P. Huhn and Volker Blum,
    'One-hundred-three compound band-structure benchmark of post-self-consistent'
    'spin-orbit coupling treatments in density functional theory'
    Phys. Rev. Materials 1, 033803 (2017).


  The ELSI infrastructure was used in your run to solve the Kohn-Sham electronic structure.
  Please check out http://elsi-interchange.org to learn more.
  If scalability is important for your project, please acknowledge ELSI by citing:

    V. W-z. Yu, F. Corsetti, A. Garcia, W. P. Huhn, M. Jacquelin, W. Jia,
    B. Lange, L. Lin, J. Lu, W. Mi, A. Seifitokaldani, A. Vazquez-Mayagoitia,
    C. Yang, H. Yang, and V. Blum
    'ELSI: A unified software interface for Kohn-Sham electronic structure solvers'
    Computer Physics Communications 222, 267-285 (2018).
    http://doi.org/10.1016/j.cpc.2017.09.007


  For the real-space grid partitioning and parallelization used in this calculation, please cite:

    Ville Havu, Volker Blum, Paula Havu, and Matthias Scheffler,
    'Efficient O(N) integration for all-electron electronic structure calculation'
    'using numerically tabulated basis functions'
    Journal of Computational Physics 228, 8367-8379 (2009).
    http://doi.org/10.1016/j.jcp.2009.08.008


  The high-level electronic structure method used in your calculation
  employed our efficient localized resolution of identity for the Coulomb operator.
  Some calculations, especially large-scale hybrid density functional theory,
  are only possible thanks to this development. For this feature, please cite:

    Arvid Ihrig, Juergen Wieferink, Igor Ying Zhang, Matti Ropo, Xinguo Ren,
    Patrick Rinke, Matthias Scheffler, and Volker Blum,
    'Accurate localized resolution of identity approach for linear-scaling
    hybrid density functionals and for many-body perturbation theory'
    New Journal of Physics 117, 093020 (2015).
    http://doi.org/10.1088/1367-2630/17/9/093020

  Of course, there are many other important community references, e.g., those cited in the
  above references. Our list is limited to references that describe implementations in the
  FHI-aims code. The reason is purely practical (length of this list) - please credit others as well.

------------------------------------------------------------
          Leaving FHI-aims.
          Date     :  20221005, Time     :  073436.515

          Computational steps:
          | Number of self-consistency cycles          :           30
          | Number of SCF (re)initializations          :            1

          Detailed time accounting                     :  max(cpu_time)    wall_clock(cpu1)
          | Total time                                  :     4797.807 s        4798.290 s
          | Preparation time                            :        1.484 s           1.486 s
          | Boundary condition initalization            :        0.835 s           0.836 s
          | Grid partitioning                           :        2.088 s           2.089 s
          | Preloading free-atom quantities on grid     :        1.262 s           1.264 s
          | Free-atom superposition energy              :        0.044 s           0.044 s
          | Total time for integrations                 :       46.658 s          46.658 s
          | Product basis setup: Total time             :      481.301 s         481.310 s
          | Total time evaluating exchange matrix       :     3932.204 s        3931.482 s
          | Total time for solution of K.-S. equations  :      121.962 s         121.962 s
          | Total time for density & force components   :      150.107 s         150.111 s
          | Total time for mixing                       :        0.200 s           0.203 s
          | Total time for Hartree multipole update     :        0.367 s           0.362 s
          | Total time for Hartree multipole sum        :       34.093 s          34.102 s
          | Total time for total energy evaluation      :        0.069 s           0.090 s
          | Total time NSC force correction             :        3.355 s           3.355 s
          | Total time for scaled ZORA corrections      :        0.000 s           0.000 s
          | Total time for vdW correction               :        5.152 s           5.156 s
          | Total time for perturbative SOC             :       14.170 s          14.170 s
          | Total time for Mulliken analysis            :        2.390 s           2.411 s

          Partial memory accounting:
          | Residual value for overall tracked memory usage across tasks:     0.000000 MB (should be 0.000000 MB)
          | Peak values for overall tracked memory usage:
          |   Minimum:      648.401 MB (on task 109 after allocating potential_shell)
          |   Maximum:     1516.105 MB (on task 266 after allocating potential_shell)
          |   Average:      917.035 MB
          | Largest tracked array allocation:
          |   Minimum:      131.973 MB (ovlp3fn for atom on task   0)
          |   Maximum:      309.970 MB (ovlp3fn for atom on task 266)
          |   Average:      167.603 MB
          Note:  These values currently only include a subset of arrays which are explicitly tracked.
          The "true" memory usage will be greater.

          Have a nice day.
------------------------------------------------------------
