------------------------------------------------------------
          Invoking FHI-aims ...

          When using FHI-aims, please cite the following reference:

            Volker Blum, Ralf Gehrke, Felix Hanke, Paula Havu,
            Ville Havu, Xinguo Ren, Karsten Reuter, and Matthias Scheffler,
            'Ab Initio Molecular Simulations with Numeric Atom-Centered Orbitals',
            Computer Physics Communications 180, 2175-2196 (2009)

          In addition, many other developments in FHI-aims are likely important for
          your particular application. A partial list of references is given at the end of
          this file. Thank you for giving credit to the authors of these developments.

          For any questions about FHI-aims, please visit our slack channel at

            https://fhi-aims.slack.com

          and our main development and support site at

            https://aims-git.rz-berlin.mpg.de .

          The latter site, in particular, has a wiki to collect information, as well
          as an issue tracker to log discussions, suggest improvements, and report issues
          or bugs. https://aims-git.rz-berlin.mpg.de is also the main development site
          of the project and all new and updated code versions can be obtained there.
          Please send an email to aims-coordinators@fhi-berlin.mpg.de and we will add
          you to these sites. They are for you and everyone is welcome there.

------------------------------------------------------------



  Date     :  20211214, Time     :  145151.429
  Time zero on CPU 1             :   0.105997000000000E+00  s.
  Internal wall clock time zero  :           408725511.429  s.

  FHI-aims created a unique identifier for this run for later identification
  aims_uuid : 60C8258D-6357-4F63-AC5E-A0DF2B3CB1F5

  Build configuration of the current instance of FHI-aims
  -------------------------------------------------------
  FHI-aims version      : 210513
  Commit number         : 1a2d0b161
  CMake host system     : Linux-4.12.14-122.63-default
  CMake version         : 3.5.2
  Fortran compiler      : /mpcdf/soft/SLE_12/packages/x86_64/intel_parallel_studio/2020.1/compilers_and_libraries_2020.1.217/linux/mpi/intel64/bin/mpiifort (Intel) version 19.1.0.20200306
  Fortran compiler flags: -O3 -ip -fp-model precise
  C compiler            : /mpcdf/soft/SLE_12/packages/x86_64/intel/19.1.1/bin/icc (Intel) version 19.1.0.20200306
  C compiler flags      : -O3 -ip -fp-model precise -std=gnu99
  C++ compiler          : /mpcdf/soft/SLE_12/packages/x86_64/intel/19.1.1/bin/icpc (Intel) version 19.1.0.20200306
  C++ compiler flags    : -O3 -ip -fp-model precise -std=gnu99
  Using MPI
  Using ScaLAPACK
  Using LibXC
  Using i-PI
  Using RLSY
  Linking against: /mpcdf/soft/SLE_12/packages/x86_64/intel_parallel_studio/2020.1/mkl/lib/intel64/libmkl_intel_lp64.so
                   /mpcdf/soft/SLE_12/packages/x86_64/intel_parallel_studio/2020.1/mkl/lib/intel64/libmkl_sequential.so
                   /mpcdf/soft/SLE_12/packages/x86_64/intel_parallel_studio/2020.1/mkl/lib/intel64/libmkl_core.so
                   /mpcdf/soft/SLE_12/packages/x86_64/intel_parallel_studio/2020.1/mkl/lib/intel64/libmkl_blacs_intelmpi_lp64.so
                   /mpcdf/soft/SLE_12/packages/x86_64/intel_parallel_studio/2020.1/mkl/lib/intel64/libmkl_scalapack_lp64.so

  Using      160 parallel tasks.
  Task        0 on host co4468 reporting.
  Task        1 on host co4468 reporting.
  Task        2 on host co4468 reporting.
  Task        3 on host co4468 reporting.
  Task        4 on host co4468 reporting.
  Task        5 on host co4468 reporting.
  Task        6 on host co4468 reporting.
  Task        7 on host co4468 reporting.
  Task        8 on host co4468 reporting.
  Task        9 on host co4468 reporting.
  Task       10 on host co4468 reporting.
  Task       11 on host co4468 reporting.
  Task       12 on host co4468 reporting.
  Task       13 on host co4468 reporting.
  Task       14 on host co4468 reporting.
  Task       15 on host co4468 reporting.
  Task       16 on host co4468 reporting.
  Task       17 on host co4468 reporting.
  Task       18 on host co4468 reporting.
  Task       19 on host co4468 reporting.
  Task       20 on host co4468 reporting.
  Task       21 on host co4468 reporting.
  Task       22 on host co4468 reporting.
  Task       23 on host co4468 reporting.
  Task       24 on host co4468 reporting.
  Task       25 on host co4468 reporting.
  Task       26 on host co4468 reporting.
  Task       27 on host co4468 reporting.
  Task       28 on host co4468 reporting.
  Task       29 on host co4468 reporting.
  Task       30 on host co4468 reporting.
  Task       31 on host co4468 reporting.
  Task       32 on host co4468 reporting.
  Task       33 on host co4468 reporting.
  Task       34 on host co4468 reporting.
  Task       35 on host co4468 reporting.
  Task       36 on host co4468 reporting.
  Task       37 on host co4468 reporting.
  Task       38 on host co4468 reporting.
  Task       39 on host co4468 reporting.
  Task       40 on host co4469 reporting.
  Task       41 on host co4469 reporting.
  Task       42 on host co4469 reporting.
  Task       43 on host co4469 reporting.
  Task       44 on host co4469 reporting.
  Task       45 on host co4469 reporting.
  Task       46 on host co4469 reporting.
  Task       47 on host co4469 reporting.
  Task       48 on host co4469 reporting.
  Task       49 on host co4469 reporting.
  Task       50 on host co4469 reporting.
  Task       51 on host co4469 reporting.
  Task       52 on host co4469 reporting.
  Task       53 on host co4469 reporting.
  Task       54 on host co4469 reporting.
  Task       55 on host co4469 reporting.
  Task       56 on host co4469 reporting.
  Task       57 on host co4469 reporting.
  Task       58 on host co4469 reporting.
  Task       59 on host co4469 reporting.
  Task       60 on host co4469 reporting.
  Task       61 on host co4469 reporting.
  Task       62 on host co4469 reporting.
  Task       63 on host co4469 reporting.
  Task       64 on host co4469 reporting.
  Task       65 on host co4469 reporting.
  Task       66 on host co4469 reporting.
  Task       67 on host co4469 reporting.
  Task       68 on host co4469 reporting.
  Task       69 on host co4469 reporting.
  Task       70 on host co4469 reporting.
  Task       71 on host co4469 reporting.
  Task       72 on host co4469 reporting.
  Task       73 on host co4469 reporting.
  Task       74 on host co4469 reporting.
  Task       75 on host co4469 reporting.
  Task       76 on host co4469 reporting.
  Task       77 on host co4469 reporting.
  Task       78 on host co4469 reporting.
  Task       79 on host co4469 reporting.
  Task       80 on host co4470 reporting.
  Task       81 on host co4470 reporting.
  Task       82 on host co4470 reporting.
  Task       83 on host co4470 reporting.
  Task       84 on host co4470 reporting.
  Task       85 on host co4470 reporting.
  Task       86 on host co4470 reporting.
  Task       87 on host co4470 reporting.
  Task       88 on host co4470 reporting.
  Task       89 on host co4470 reporting.
  Task       90 on host co4470 reporting.
  Task       91 on host co4470 reporting.
  Task       92 on host co4470 reporting.
  Task       93 on host co4470 reporting.
  Task       94 on host co4470 reporting.
  Task       95 on host co4470 reporting.
  Task       96 on host co4470 reporting.
  Task       97 on host co4470 reporting.
  Task       98 on host co4470 reporting.
  Task       99 on host co4470 reporting.
  Task      100 on host co4470 reporting.
  Task      101 on host co4470 reporting.
  Task      102 on host co4470 reporting.
  Task      103 on host co4470 reporting.
  Task      104 on host co4470 reporting.
  Task      105 on host co4470 reporting.
  Task      106 on host co4470 reporting.
  Task      107 on host co4470 reporting.
  Task      108 on host co4470 reporting.
  Task      109 on host co4470 reporting.
  Task      110 on host co4470 reporting.
  Task      111 on host co4470 reporting.
  Task      112 on host co4470 reporting.
  Task      113 on host co4470 reporting.
  Task      114 on host co4470 reporting.
  Task      115 on host co4470 reporting.
  Task      116 on host co4470 reporting.
  Task      117 on host co4470 reporting.
  Task      118 on host co4470 reporting.
  Task      119 on host co4470 reporting.
  Task      120 on host co4633 reporting.
  Task      121 on host co4633 reporting.
  Task      122 on host co4633 reporting.
  Task      123 on host co4633 reporting.
  Task      124 on host co4633 reporting.
  Task      125 on host co4633 reporting.
  Task      126 on host co4633 reporting.
  Task      127 on host co4633 reporting.
  Task      128 on host co4633 reporting.
  Task      129 on host co4633 reporting.
  Task      130 on host co4633 reporting.
  Task      131 on host co4633 reporting.
  Task      132 on host co4633 reporting.
  Task      133 on host co4633 reporting.
  Task      134 on host co4633 reporting.
  Task      135 on host co4633 reporting.
  Task      136 on host co4633 reporting.
  Task      137 on host co4633 reporting.
  Task      138 on host co4633 reporting.
  Task      139 on host co4633 reporting.
  Task      140 on host co4633 reporting.
  Task      141 on host co4633 reporting.
  Task      142 on host co4633 reporting.
  Task      143 on host co4633 reporting.
  Task      144 on host co4633 reporting.
  Task      145 on host co4633 reporting.
  Task      146 on host co4633 reporting.
  Task      147 on host co4633 reporting.
  Task      148 on host co4633 reporting.
  Task      149 on host co4633 reporting.
  Task      150 on host co4633 reporting.
  Task      151 on host co4633 reporting.
  Task      152 on host co4633 reporting.
  Task      153 on host co4633 reporting.
  Task      154 on host co4633 reporting.
  Task      155 on host co4633 reporting.
  Task      156 on host co4633 reporting.
  Task      157 on host co4633 reporting.
  Task      158 on host co4633 reporting.
  Task      159 on host co4633 reporting.

  Performing system and environment tests:
  | Environment variable OMP_NUM_THREADS correctly set to 1.
  | Checking for ScaLAPACK...
  | Testing pdtran()...
  | All pdtran() tests passed.

  Obtaining array dimensions for all initial allocations:
  
  -----------------------------------------------------------------------
  Parsing control.in (first pass over file, find array dimensions only).
  The contents of control.in will be repeated verbatim below
  unless switched off by setting 'verbatim_writeout .false.' .
  in the first line of control.in .
  -----------------------------------------------------------------------
  
  ##### Physical settings  ################
  xc                 pbe
  spin               none
  charge      0.0
  relativistic       atomic_zora scalar
  #elsi_restart read
  # SCF settings
  use_symmetric_forces .true.
  relax_geometry trm 1E-3
  relax_unit_cell full
  
  # k-grid settings  (to be adjusted)
  k_grid  10 10 1
  #empty_states 8
  #use_dipole_correction
  many_body_dispersion_nl    beta=0.81
  #
  #  FHI-aims code project
  # Volker Blum, Fritz Haber Institute Berlin, 2009
  #
  #  Suggested "tight" defaults for S atom (to be pasted into control.in file)
  #
  #  Revised Jan 04, 2011, following tests (SiC) done by Lydia Nemec:
  #     d and g functions of tier 2 now enabled by default.
  #
  ################################################################################
    species        S
  #     global species definitions
      nucleus             16
      mass                32.065
  #
      l_hartree           6
  #
      cut_pot             4.0          2.0  1.0
      basis_dep_cutoff    1e-4
  #
      radial_base         44 7.0
      radial_multiplier   2
      angular_grids       specified
        division   0.4665  110
        division   0.5810  194
        division   0.7139  302
        division   0.8274  434
  #      division   0.9105  590
  #      division   1.0975  770
  #      division   1.2028  974
  #      outer_grid  974
        outer_grid  434
  ################################################################################
  #
  #  Definition of "minimal" basis
  #
  ################################################################################
  #     valence basis states
      valence      3  s   2.
      valence      3  p   4.
  #     ion occupancy
      ion_occ      3  s   1.
      ion_occ      3  p   3.
  ################################################################################
  #
  #  Suggested additional basis functions. For production calculations,
  #  uncomment them one after another (the most important basis functions are
  #  listed first).
  #
  #  Constructed for dimers: 1.6 A, 1.9 A, 2.5 A, 3.25 A, 4.0 A
  #
  ################################################################################
  #  "First tier" - improvements: -652.81 meV to -45.53 meV
       ionic 3 d auto
       hydro 2 p 1.8
       hydro 4 f 7
       ionic 3 s auto
  #  "Second tier" - improvements: -30.20 meV to -1.74 meV
       hydro 4 d 6.2
       hydro 5 g 10.8
  #     hydro 4 p 4.9
  #     hydro 5 f 10
  #     hydro 1 s 0.8
  #  "Third tier" - improvements: -1.04 meV to -0.20 meV
  #     hydro 3 d 3.9
  #     hydro 3 d 2.7
  #     hydro 5 g 12
  #     hydro 4 p 10.4
  #     hydro 5 f 12.4
  #     hydro 2 s 1.9
  #  "Fourth tier" - improvements: -0.35 meV to -0.06 meV
  #     hydro 4 d 10.4
  #     hydro 4 p 7.2
  #     hydro 4 d 10
  #     hydro 5 g 19.2
  #     hydro 4 s 12
  
  ################################################################################
  #
  # For methods that use the localized form of the "resolution of identity" for
  # the two-electron Coulomb operator (RI_method LVL), particularly Hartree-Fock and
  # hybrid density functional calculations, the highest accuracy can be obtained by
  # uncommenting the line beginning with "for_aux"  below, thus adding an extra g radial
  # function to the construction of the product basis set for the expansion.
  # See Ref. New J. Phys. 17, 093020 (2015) for more information, particularly Figs. 1 and 6.
  #
  ################################################################################
  #
  # for_aux hydro 5 g 6.0
  ################################################################################
  #
  #  FHI-aims code project
  # Volker Blum, Fritz Haber Institute Berlin, 2009
  #
  #  Suggested "tight" defaults for Mo atom (to be pasted into control.in file)
  #
  ################################################################################
    species        Mo
  #     global species definitions
      nucleus             42
      mass                95.94
  #
      l_hartree           6
  #
      cut_pot             4.0  2.0  1.0
      basis_dep_cutoff    1e-4
  #
      radial_base         59 7.0
      radial_multiplier   2
      angular_grids specified
        division   0.3117   50
        division   0.6750  110
        division   1.0351  194
        division   1.2073  302
        division   1.6402  434
  #      division   1.9185  590
  #      division   2.0237  770
  #      division   2.0980  974
  #      division   2.7972 1202
  #      outer_grid  974
        outer_grid  434
  ################################################################################
  #
  #  Definition of "minimal" basis
  #
  ################################################################################
  #     valence basis states
      valence      5  s   1.
      valence      4  p   6.
      valence      4  d   5.
  #     ion occupancy
      ion_occ     5  s   0.
      ion_occ     4  p   6.
      ion_occ     4  d   4.
  ################################################################################
  #
  #  Suggested additional basis functions. For production calculations,
  #  uncomment them one after another (the most important basis functions are
  #  listed first).
  #
  #  Constructed for dimers: 1.675 A, 1.9 A, 2.375 A, 3.00 A, 4.00 A
  #
  ################################################################################
  #  "First tier"  - max. impr. -711.23  meV, min. impr. -21.07 meV
       hydro 4 f 8.4
       hydro 3 d 2.8
       ionic 5 p auto
       hydro 5 g 12
       ionic 5 s auto
  #  "Second tier" - max. impr. -39.38  meV, min. impr. -2.68 meV
  #     hydro 4 f 12.4
  #     hydro 3 d 3.3
  #     hydro 6 h 17.2
  #     hydro 4 f 7.6
  #     hydro 3 p 3.0
  #     hydro 1 s 0.65
  #  "Third tier"  - max. impr. -5.50 meV, min. impr. -0.47 meV
  #     hydro 4 f 29.2
  #     hydro 5 g 11.2
  #     hydro 3 d 6.8
  #     hydro 6 h 14.8
  #     hydro 2 p 2.3
  #     hydro 4 s 3.8
  #  "Fourth tier"  - max. impr. -0.58 meV, min. impr. -0.19 meV
  #     hydro 5 f 6.8
  #     hydro 5 d 14.8
  #     hydro 6 s 7.8
  #     hydro 5 g 20.8
  #     hydro 5 d 10.4
  #     hydro 5 p 9.8
  #  Further functions - -0.17 meV and below
  #     hydro 5 d 3.2
  
  -----------------------------------------------------------------------
  Completed first pass over input file control.in .
  -----------------------------------------------------------------------
  
  
  -----------------------------------------------------------------------
  Parsing geometry.in (first pass over file, find array dimensions only).
  The contents of geometry.in will be repeated verbatim below
  unless switched off by setting 'verbatim_writeout .false.' .
  in the first line of geometry.in .
  -----------------------------------------------------------------------
  
  #=======================================================
  # FHI-aims file: geometry2H.in
  # Created using the Atomic Simulation Environment (ASE)
  # Wed Apr  7 10:48:42 2021
  #=======================================================
  lattice_vector 3.1629329600000000 0.0000000000000000 0.0000000000000000
  lattice_vector -1.5814664800000000 2.7391802938271095 0.0000000000000000
  lattice_vector 0.0000000000000000 0.0000000000000000 100.0000000000000000
  atom -0.7907332400000000 -0.4565300489711849 0.0000000000000000 Mo
  atom 0.7907332400000000 0.4565300489711849 1.5950000000000000 S
  atom 0.7907332400000000 0.4565300489711849 -1.5950000000000000 S
  
  -----------------------------------------------------------------------
  Completed first pass over input file geometry.in .
  -----------------------------------------------------------------------
  

  Basic array size parameters:
  | Number of species                 :        2
  | Number of atoms                   :        3
  | Number of lattice vectors         :        3
  | Max. basis fn. angular momentum   :        4
  | Max. atomic/ionic basis occupied n:        5
  | Max. number of basis fn. types    :        3
  | Max. radial fns per species/type  :       10
  | Max. logarithmic grid size        :     1436
  | Max. radial integration grid size :      119
  | Max. angular integration grid size:      434
  | Max. angular grid division number :        8
  | Radial grid for Hartree potential :     1436
  | Number of spin channels           :        1

------------------------------------------------------------
          Reading file control.in.
------------------------------------------------------------
  XC: Using PBE gradient-corrected functionals.
  Spin treatment: No spin polarisation.
  Charge =   0.000000E+00: Neutral system requested explicitly.
  Scalar relativistic treatment of kinetic energy: on-site free-atom approximation to ZORA.
  Geometry relaxation: Modified BFGS - TRM (trust radius method) for lattice optimization.
  Convergence accuracy for geometry relaxation: Maximum force <   0.100000E-02 eV/A.
  Found k-point grid:        10        10         1
  Using libMBD for calculating MBD and TS energies
 
  Reading configuration options for species S                   .
  | Found nuclear charge :  16.0000
  | Found atomic mass :    32.0650000000000      amu
  | Found l_max for Hartree potential  :   6
  | Found cutoff potl. onset [A], width [A], scale factor :    4.00000    2.00000    1.00000
  | Threshold for basis-dependent cutoff potential is   0.100000E-03
  | Found data for basic radial integration grid :    44 points, outermost radius =    7.000 A
  | Found multiplier for basic radial grid :   2
  | Found angular grid specification: user-specified.
  | Specified grid contains     5 separate shells.
  | Check grid settings after all constraints further below.
  | Found free-atom valence shell :  3 s   2.000
  | Found free-atom valence shell :  3 p   4.000
  | Found free-ion valence shell :  3 s   1.000
  | Found free-ion valence shell :  3 p   3.000
  | Found ionic basis function :  3 d , default cutoff radius.
  | Found hydrogenic basis function :  2 p   1.800
  | Found hydrogenic basis function :  4 f   7.000
  | Found ionic basis function :  3 s , default cutoff radius.
  | Found hydrogenic basis function :  4 d   6.200
  | Found hydrogenic basis function :  5 g  10.800
  Species S                   : Missing cutoff potential type.
  Defaulting to exp(1/x)/(1-x)^2 type cutoff potential.
  Species S : No 'logarithmic' tag. Using default grid for free atom:
  | Default logarithmic grid data [bohr] : 0.1000E-03 0.1000E+03 0.1012E+01
  | Will include ionic basis functions of  2.0-fold positive S                    ion.
  Species S : On-site basis accuracy parameter (for Gram-Schmidt orthonormalisation) not specified.
  Using default value basis_acc =  0.1000000E-03.
  Species S                   : Using default innermost maximum threshold i_radial=  2 for radial functions.
  Species S                   : Default cutoff onset for free atom density etc. : 0.40000000E+01 AA.
  Species S                   : Basic radial grid will be enhanced according to radial_multiplier =   2, to contain    89 grid points.
 
  Reading configuration options for species Mo                  .
  | Found nuclear charge :  42.0000
  | Found atomic mass :    95.9400000000000      amu
  | Found l_max for Hartree potential  :   6
  | Found cutoff potl. onset [A], width [A], scale factor :    4.00000    2.00000    1.00000
  | Threshold for basis-dependent cutoff potential is   0.100000E-03
  | Found data for basic radial integration grid :    59 points, outermost radius =    7.000 A
  | Found multiplier for basic radial grid :   2
  | Found angular grid specification: user-specified.
  | Specified grid contains     6 separate shells.
  | Check grid settings after all constraints further below.
  | Found free-atom valence shell :  5 s   1.000
  | Found free-atom valence shell :  4 p   6.000
  | Found free-atom valence shell :  4 d   5.000
  | Found free-ion valence shell :  5 s   0.000
  | Found free-ion valence shell :  4 p   6.000
  | Found free-ion valence shell :  4 d   4.000
  | Found hydrogenic basis function :  4 f   8.400
  | Found hydrogenic basis function :  3 d   2.800
  | Found ionic basis function :  5 p , default cutoff radius.
  | Found hydrogenic basis function :  5 g  12.000
  | Found ionic basis function :  5 s , default cutoff radius.
  Species Mo                  : Missing cutoff potential type.
  Defaulting to exp(1/x)/(1-x)^2 type cutoff potential.
  Species Mo: No 'logarithmic' tag. Using default grid for free atom:
  | Default logarithmic grid data [bohr] : 0.1000E-03 0.1000E+03 0.1012E+01
  | Will include ionic basis functions of  2.0-fold positive Mo                   ion.
  Species Mo: On-site basis accuracy parameter (for Gram-Schmidt orthonormalisation) not specified.
  Using default value basis_acc =  0.1000000E-03.
  Species Mo                  : Using default innermost maximum threshold i_radial=  2 for radial functions.
  Species Mo                  : Default cutoff onset for free atom density etc. : 0.40000000E+01 AA.
  Species Mo                  : Basic radial grid will be enhanced according to radial_multiplier =   2, to contain   119 grid points.
 
  Finished reading input file 'control.in'.
 
------------------------------------------------------------


------------------------------------------------------------
          Reading geometry description geometry.in.
------------------------------------------------------------
  | The smallest distance between any two atoms is         2.42461130 AA.
  | The first atom of this pair is atom number                      1 .
  | The second atom of this pair is atom number                     2 .
  | Wigner-Seitz cell of the first atom image           0     0     0 .
  | (The Wigner-Seitz cell of the second atom is 0 0 0  by definition.)

  Symmetry information by spglib:
  | Precision set to  0.1E-04
  | Number of Operations  : 12
  | Space group           : 187
  | International         : P-6m2
  | Schoenflies           : D3h^1
  Input structure read successfully.
  The structure contains        3 atoms,  and a total of         74.000 electrons.

  Input geometry:
  | Unit cell:
  |        3.16293296        0.00000000        0.00000000
  |       -1.58146648        2.73918029        0.00000000
  |        0.00000000        0.00000000      100.00000000
  | Atomic structure:
  |       Atom                x [A]            y [A]            z [A]
  |    1: Species Mo           -0.79073324       -0.45653005        0.00000000
  |    2: Species S             0.79073324        0.45653005        1.59500000
  |    3: Species S             0.79073324        0.45653005       -1.59500000

  Lattice parameters for 3D lattice (in Angstroms) :     3.162933    3.162933  100.000000
  Angle(s) between unit vectors (in degrees)       :    90.000000   90.000000  120.000000


  Quantities derived from the lattice vectors:
  | Reciprocal lattice vector 1:  1.986506  1.146910  0.000000
  | Reciprocal lattice vector 2: -0.000000  2.293820  0.000000
  | Reciprocal lattice vector 3:  0.000000  0.000000  0.062832
  | Unit cell volume                               :   0.866384E+03  A^3

  Fractional coordinates:
                         L1                L2                L3
       atom_frac        -0.33333333       -0.16666667        0.00000000  Mo
       atom_frac         0.33333333        0.16666667        0.01595000  S
       atom_frac         0.33333333        0.16666667       -0.01595000  S

 
  Finished reading input file 'control.in'.
 

------------------------------------------------------------
          Reading geometry description geometry.in.
------------------------------------------------------------
 
  Consistency checks for stacksize environment parameter are next.
 
  | Maximum stacksize for task 0: unlimited
  | Maximum stacksize for task 1: unlimited
  | Maximum stacksize for task 2: unlimited
  | Maximum stacksize for task 3: unlimited
  | Maximum stacksize for task 4: unlimited
  | Maximum stacksize for task 5: unlimited
  | Maximum stacksize for task 6: unlimited
  | Maximum stacksize for task 7: unlimited
  | Maximum stacksize for task 8: unlimited
  | Maximum stacksize for task 9: unlimited
  | Maximum stacksize for task 10: unlimited
  | Maximum stacksize for task 11: unlimited
  | Maximum stacksize for task 12: unlimited
  | Maximum stacksize for task 13: unlimited
  | Maximum stacksize for task 14: unlimited
  | Maximum stacksize for task 15: unlimited
  | Maximum stacksize for task 16: unlimited
  | Maximum stacksize for task 17: unlimited
  | Maximum stacksize for task 18: unlimited
  | Maximum stacksize for task 19: unlimited
  | Maximum stacksize for task 20: unlimited
  | Maximum stacksize for task 21: unlimited
  | Maximum stacksize for task 22: unlimited
  | Maximum stacksize for task 23: unlimited
  | Maximum stacksize for task 24: unlimited
  | Maximum stacksize for task 25: unlimited
  | Maximum stacksize for task 26: unlimited
  | Maximum stacksize for task 27: unlimited
  | Maximum stacksize for task 28: unlimited
  | Maximum stacksize for task 29: unlimited
  | Maximum stacksize for task 30: unlimited
  | Maximum stacksize for task 31: unlimited
  | Maximum stacksize for task 32: unlimited
  | Maximum stacksize for task 33: unlimited
  | Maximum stacksize for task 34: unlimited
  | Maximum stacksize for task 35: unlimited
  | Maximum stacksize for task 36: unlimited
  | Maximum stacksize for task 37: unlimited
  | Maximum stacksize for task 38: unlimited
  | Maximum stacksize for task 39: unlimited
  | Maximum stacksize for task 40: unlimited
  | Maximum stacksize for task 41: unlimited
  | Maximum stacksize for task 42: unlimited
  | Maximum stacksize for task 43: unlimited
  | Maximum stacksize for task 44: unlimited
  | Maximum stacksize for task 45: unlimited
  | Maximum stacksize for task 46: unlimited
  | Maximum stacksize for task 47: unlimited
  | Maximum stacksize for task 48: unlimited
  | Maximum stacksize for task 49: unlimited
  | Maximum stacksize for task 50: unlimited
  | Maximum stacksize for task 51: unlimited
  | Maximum stacksize for task 52: unlimited
  | Maximum stacksize for task 53: unlimited
  | Maximum stacksize for task 54: unlimited
  | Maximum stacksize for task 55: unlimited
  | Maximum stacksize for task 56: unlimited
  | Maximum stacksize for task 57: unlimited
  | Maximum stacksize for task 58: unlimited
  | Maximum stacksize for task 59: unlimited
  | Maximum stacksize for task 60: unlimited
  | Maximum stacksize for task 61: unlimited
  | Maximum stacksize for task 62: unlimited
  | Maximum stacksize for task 63: unlimited
  | Maximum stacksize for task 64: unlimited
  | Maximum stacksize for task 65: unlimited
  | Maximum stacksize for task 66: unlimited
  | Maximum stacksize for task 67: unlimited
  | Maximum stacksize for task 68: unlimited
  | Maximum stacksize for task 69: unlimited
  | Maximum stacksize for task 70: unlimited
  | Maximum stacksize for task 71: unlimited
  | Maximum stacksize for task 72: unlimited
  | Maximum stacksize for task 73: unlimited
  | Maximum stacksize for task 74: unlimited
  | Maximum stacksize for task 75: unlimited
  | Maximum stacksize for task 76: unlimited
  | Maximum stacksize for task 77: unlimited
  | Maximum stacksize for task 78: unlimited
  | Maximum stacksize for task 79: unlimited
  | Maximum stacksize for task 80: unlimited
  | Maximum stacksize for task 81: unlimited
  | Maximum stacksize for task 82: unlimited
  | Maximum stacksize for task 83: unlimited
  | Maximum stacksize for task 84: unlimited
  | Maximum stacksize for task 85: unlimited
  | Maximum stacksize for task 86: unlimited
  | Maximum stacksize for task 87: unlimited
  | Maximum stacksize for task 88: unlimited
  | Maximum stacksize for task 89: unlimited
  | Maximum stacksize for task 90: unlimited
  | Maximum stacksize for task 91: unlimited
  | Maximum stacksize for task 92: unlimited
  | Maximum stacksize for task 93: unlimited
  | Maximum stacksize for task 94: unlimited
  | Maximum stacksize for task 95: unlimited
  | Maximum stacksize for task 96: unlimited
  | Maximum stacksize for task 97: unlimited
  | Maximum stacksize for task 98: unlimited
  | Maximum stacksize for task 99: unlimited
  | Maximum stacksize for task 100: unlimited
  | Maximum stacksize for task 101: unlimited
  | Maximum stacksize for task 102: unlimited
  | Maximum stacksize for task 103: unlimited
  | Maximum stacksize for task 104: unlimited
  | Maximum stacksize for task 105: unlimited
  | Maximum stacksize for task 106: unlimited
  | Maximum stacksize for task 107: unlimited
  | Maximum stacksize for task 108: unlimited
  | Maximum stacksize for task 109: unlimited
  | Maximum stacksize for task 110: unlimited
  | Maximum stacksize for task 111: unlimited
  | Maximum stacksize for task 112: unlimited
  | Maximum stacksize for task 113: unlimited
  | Maximum stacksize for task 114: unlimited
  | Maximum stacksize for task 115: unlimited
  | Maximum stacksize for task 116: unlimited
  | Maximum stacksize for task 117: unlimited
  | Maximum stacksize for task 118: unlimited
  | Maximum stacksize for task 119: unlimited
  | Maximum stacksize for task 120: unlimited
  | Maximum stacksize for task 121: unlimited
  | Maximum stacksize for task 122: unlimited
  | Maximum stacksize for task 123: unlimited
  | Maximum stacksize for task 124: unlimited
  | Maximum stacksize for task 125: unlimited
  | Maximum stacksize for task 126: unlimited
  | Maximum stacksize for task 127: unlimited
  | Maximum stacksize for task 128: unlimited
  | Maximum stacksize for task 129: unlimited
  | Maximum stacksize for task 130: unlimited
  | Maximum stacksize for task 131: unlimited
  | Maximum stacksize for task 132: unlimited
  | Maximum stacksize for task 133: unlimited
  | Maximum stacksize for task 134: unlimited
  | Maximum stacksize for task 135: unlimited
  | Maximum stacksize for task 136: unlimited
  | Maximum stacksize for task 137: unlimited
  | Maximum stacksize for task 138: unlimited
  | Maximum stacksize for task 139: unlimited
  | Maximum stacksize for task 140: unlimited
  | Maximum stacksize for task 141: unlimited
  | Maximum stacksize for task 142: unlimited
  | Maximum stacksize for task 143: unlimited
  | Maximum stacksize for task 144: unlimited
  | Maximum stacksize for task 145: unlimited
  | Maximum stacksize for task 146: unlimited
  | Maximum stacksize for task 147: unlimited
  | Maximum stacksize for task 148: unlimited
  | Maximum stacksize for task 149: unlimited
  | Maximum stacksize for task 150: unlimited
  | Maximum stacksize for task 151: unlimited
  | Maximum stacksize for task 152: unlimited
  | Maximum stacksize for task 153: unlimited
  | Maximum stacksize for task 154: unlimited
  | Maximum stacksize for task 155: unlimited
  | Maximum stacksize for task 156: unlimited
  | Maximum stacksize for task 157: unlimited
  | Maximum stacksize for task 158: unlimited
  | Maximum stacksize for task 159: unlimited
  | Current stacksize for task 0: unlimited
  | Current stacksize for task 1: unlimited
  | Current stacksize for task 2: unlimited
  | Current stacksize for task 3: unlimited
  | Current stacksize for task 4: unlimited
  | Current stacksize for task 5: unlimited
  | Current stacksize for task 6: unlimited
  | Current stacksize for task 7: unlimited
  | Current stacksize for task 8: unlimited
  | Current stacksize for task 9: unlimited
  | Current stacksize for task 10: unlimited
  | Current stacksize for task 11: unlimited
  | Current stacksize for task 12: unlimited
  | Current stacksize for task 13: unlimited
  | Current stacksize for task 14: unlimited
  | Current stacksize for task 15: unlimited
  | Current stacksize for task 16: unlimited
  | Current stacksize for task 17: unlimited
  | Current stacksize for task 18: unlimited
  | Current stacksize for task 19: unlimited
  | Current stacksize for task 20: unlimited
  | Current stacksize for task 21: unlimited
  | Current stacksize for task 22: unlimited
  | Current stacksize for task 23: unlimited
  | Current stacksize for task 24: unlimited
  | Current stacksize for task 25: unlimited
  | Current stacksize for task 26: unlimited
  | Current stacksize for task 27: unlimited
  | Current stacksize for task 28: unlimited
  | Current stacksize for task 29: unlimited
  | Current stacksize for task 30: unlimited
  | Current stacksize for task 31: unlimited
  | Current stacksize for task 32: unlimited
  | Current stacksize for task 33: unlimited
  | Current stacksize for task 34: unlimited
  | Current stacksize for task 35: unlimited
  | Current stacksize for task 36: unlimited
  | Current stacksize for task 37: unlimited
  | Current stacksize for task 38: unlimited
  | Current stacksize for task 39: unlimited
  | Current stacksize for task 40: unlimited
  | Current stacksize for task 41: unlimited
  | Current stacksize for task 42: unlimited
  | Current stacksize for task 43: unlimited
  | Current stacksize for task 44: unlimited
  | Current stacksize for task 45: unlimited
  | Current stacksize for task 46: unlimited
  | Current stacksize for task 47: unlimited
  | Current stacksize for task 48: unlimited
  | Current stacksize for task 49: unlimited
  | Current stacksize for task 50: unlimited
  | Current stacksize for task 51: unlimited
  | Current stacksize for task 52: unlimited
  | Current stacksize for task 53: unlimited
  | Current stacksize for task 54: unlimited
  | Current stacksize for task 55: unlimited
  | Current stacksize for task 56: unlimited
  | Current stacksize for task 57: unlimited
  | Current stacksize for task 58: unlimited
  | Current stacksize for task 59: unlimited
  | Current stacksize for task 60: unlimited
  | Current stacksize for task 61: unlimited
  | Current stacksize for task 62: unlimited
  | Current stacksize for task 63: unlimited
  | Current stacksize for task 64: unlimited
  | Current stacksize for task 65: unlimited
  | Current stacksize for task 66: unlimited
  | Current stacksize for task 67: unlimited
  | Current stacksize for task 68: unlimited
  | Current stacksize for task 69: unlimited
  | Current stacksize for task 70: unlimited
  | Current stacksize for task 71: unlimited
  | Current stacksize for task 72: unlimited
  | Current stacksize for task 73: unlimited
  | Current stacksize for task 74: unlimited
  | Current stacksize for task 75: unlimited
  | Current stacksize for task 76: unlimited
  | Current stacksize for task 77: unlimited
  | Current stacksize for task 78: unlimited
  | Current stacksize for task 79: unlimited
  | Current stacksize for task 80: unlimited
  | Current stacksize for task 81: unlimited
  | Current stacksize for task 82: unlimited
  | Current stacksize for task 83: unlimited
  | Current stacksize for task 84: unlimited
  | Current stacksize for task 85: unlimited
  | Current stacksize for task 86: unlimited
  | Current stacksize for task 87: unlimited
  | Current stacksize for task 88: unlimited
  | Current stacksize for task 89: unlimited
  | Current stacksize for task 90: unlimited
  | Current stacksize for task 91: unlimited
  | Current stacksize for task 92: unlimited
  | Current stacksize for task 93: unlimited
  | Current stacksize for task 94: unlimited
  | Current stacksize for task 95: unlimited
  | Current stacksize for task 96: unlimited
  | Current stacksize for task 97: unlimited
  | Current stacksize for task 98: unlimited
  | Current stacksize for task 99: unlimited
  | Current stacksize for task 100: unlimited
  | Current stacksize for task 101: unlimited
  | Current stacksize for task 102: unlimited
  | Current stacksize for task 103: unlimited
  | Current stacksize for task 104: unlimited
  | Current stacksize for task 105: unlimited
  | Current stacksize for task 106: unlimited
  | Current stacksize for task 107: unlimited
  | Current stacksize for task 108: unlimited
  | Current stacksize for task 109: unlimited
  | Current stacksize for task 110: unlimited
  | Current stacksize for task 111: unlimited
  | Current stacksize for task 112: unlimited
  | Current stacksize for task 113: unlimited
  | Current stacksize for task 114: unlimited
  | Current stacksize for task 115: unlimited
  | Current stacksize for task 116: unlimited
  | Current stacksize for task 117: unlimited
  | Current stacksize for task 118: unlimited
  | Current stacksize for task 119: unlimited
  | Current stacksize for task 120: unlimited
  | Current stacksize for task 121: unlimited
  | Current stacksize for task 122: unlimited
  | Current stacksize for task 123: unlimited
  | Current stacksize for task 124: unlimited
  | Current stacksize for task 125: unlimited
  | Current stacksize for task 126: unlimited
  | Current stacksize for task 127: unlimited
  | Current stacksize for task 128: unlimited
  | Current stacksize for task 129: unlimited
  | Current stacksize for task 130: unlimited
  | Current stacksize for task 131: unlimited
  | Current stacksize for task 132: unlimited
  | Current stacksize for task 133: unlimited
  | Current stacksize for task 134: unlimited
  | Current stacksize for task 135: unlimited
  | Current stacksize for task 136: unlimited
  | Current stacksize for task 137: unlimited
  | Current stacksize for task 138: unlimited
  | Current stacksize for task 139: unlimited
  | Current stacksize for task 140: unlimited
  | Current stacksize for task 141: unlimited
  | Current stacksize for task 142: unlimited
  | Current stacksize for task 143: unlimited
  | Current stacksize for task 144: unlimited
  | Current stacksize for task 145: unlimited
  | Current stacksize for task 146: unlimited
  | Current stacksize for task 147: unlimited
  | Current stacksize for task 148: unlimited
  | Current stacksize for task 149: unlimited
  | Current stacksize for task 150: unlimited
  | Current stacksize for task 151: unlimited
  | Current stacksize for task 152: unlimited
  | Current stacksize for task 153: unlimited
  | Current stacksize for task 154: unlimited
  | Current stacksize for task 155: unlimited
  | Current stacksize for task 156: unlimited
  | Current stacksize for task 157: unlimited
  | Current stacksize for task 158: unlimited
  | Current stacksize for task 159: unlimited
 
  Consistency checks for the contents of control.in are next.
 
  MPI_IN_PLACE appears to work with this MPI implementation.
  | Keeping use_mpi_in_place .true. (see manual).
  Target number of points in a grid batch is not set. Defaulting to  100
  Method for grid partitioning is not set. Defaulting to parallel hash+maxmin partitioning.
  Batch size limit is not set. Defaulting to    200
  By default, will store active basis functions for each batch.
  If in need of memory, prune_basis_once .false. can be used to disable this option.
  communication_type for Hartree potential was not specified.
  Defaulting to calc_hartree .
  Defaulting to Pulay charge density mixer.
  Pulay mixer: Number of relevant iterations not set.
  Defaulting to    8 iterations.
  Pulay mixer: Number of initial linear mixing iterations not set.
  Defaulting to    0 iterations.
  Work space size for distributed Hartree potential not set.
  Defaulting to   0.200000E+03 MB.
  Mixing parameter for charge density mixing has not been set.
  Using default: charge_mix_param =     0.0500.
  The mixing parameter will be adjusted in iteration number     2 of the first full s.c.f. cycle only.
  Algorithm-dependent basis array size parameters:
  | n_max_pulay                         :        8
  Maximum number of self-consistency iterations not provided.
  Presetting  1000 iterations.
  Presetting      1001 iterations before the initial mixing cycle
  is restarted anyway using the sc_init_iter criterion / keyword.
  Presetting a factor      1.000 between actual scf density residual
  and density convergence criterion sc_accuracy_rho below which sc_init_iter
  takes no effect.
 * No s.c.f. convergence criteria (sc_accuracy_*) were provided in control.in.
 * The run will proceed with a reasonable default guess, but please check whether.
 * the s.c.f. cycles seem to take too much or too little time.
  No maximum number of relaxation steps, defaulting to     1000
  Default initial Hessian is Lindh matrix (thres = 15.00) plus  0.200000E+01 eV/A^2 times unity.
  No maximum energy tolerance for TRM/BFGS moves, defaulting to   0.100000E-02
  Maximum energy tolerance by which TRM/BFGS trajectory may increase over multiple steps:   0.300000E-02
  No harmonic length scale. Defaulting to   0.250000E-01 A.
  No trust radius initializer. Defaulting to   0.200000E+00 A.
  Unit cell relaxation: Unit cell will be relaxed fully.
  Unit cell relaxation: Analytical stress will be used.
  Analytical stress will be computed.
  Analytical stress calculation: Only the upper triangle is calculated.
                                 Final output is symmetrized.
  Analytical stress calculation: scf convergence accuracy of stress not set.
                                 Analytical stress self-consistency will not be checked explicitly.
                                 Be sure to set other criteria like sc_accuracy_rho tight enough.
  Forces evaluation will include force correction term due to incomplete self-consistency (default).
 * Notice: The s.c.f. convergence criterion sc_accuracy_rho was not provided.
 * We used to stop in this case, and ask the user to provide reasonable
 * scf convergence criteria. However, this led some users to employ criteria
 * that led to extremely long run times, e.g., for simple relaxation.
 * We now preset a default value for sc_accuracy_rho if it is not set.
 * You may still wish to check if this setting is too tight or too loose for your needs.
 * Based on n_atoms and forces and force-correction status, FHI-aims chose sc_accuracy_rho =  0.333333E-06 .
  Force calculation: scf convergence accuracy of forces not set.
  Defaulting to 'sc_accuracy_forces not_checked'.
  Handling of forces: Unphysical translation and rotation will be removed from forces.
  No accuracy limit for integral partition fn. given. Defaulting to  0.1000E-14.
  No threshold value for u(r) in integrations given. Defaulting to  0.1000E-05.
  No occupation type (smearing scheme) given. Defaulting to Gaussian broadening, width =  0.1000E-01 eV.
  The width will be adjusted in iteration number     2 of the first full s.c.f. cycle only.
  S.C.F. convergence parameters will be adjusted in iteration number     2 of the first full s.c.f. cycle only.
  No accuracy for occupation numbers given. Defaulting to  0.1000E-12.
  No threshold value for occupation numbers given. Defaulting to  0.0000E+00.
  No accuracy for fermi level given. Defaulting to  0.1000E-19.
  Maximum # of iterations to find E_F not set. Defaulting to  200.
  Preferred method for the eigenvalue solver ('KS_method') not specified in 'control.in'.
  Calling BLACS routine to test compilation state
  Since ScaLAPACK support is enabled, defaulting to ELPA (via ELSI).
  Will not use alltoall communication since running on < 1024 CPUs.
  Threshold for basis singularities not set.
  Default threshold for basis singularities:  0.1000E-04
  partition_type (choice of integration weights) for integrals was not specified.
  | Using a version of the partition function of Stratmann and coworkers ('stratmann_sparse').
  | At each grid point, the set of atoms used to build the partition table is smoothly restricted to
  | only those atoms whose free-atom density would be non-zero at that grid point.
  Partitioning for Hartree potential was not defined. Using partition_type for integrals.
  | Adjusted default value of keyword multip_moments_threshold to:       0.10000000E-11
  | This value may affect high angular momentum components of the Hartree potential in periodic systems.
  Angular momentum expansion for Kerker preconditioner not set explicitly.
  | Using default value of   0
  No explicit requirement for turning off preconditioner.
  | By default, it will be turned off when the charge convergence reaches
  | sc_accuracy_rho  =   0.333333E-06
  No special mixing parameter while Kerker preconditioner is on.
  Using default: charge_mix_param =     0.0500.
  No q(lm)/r^(l+1) cutoff set for long-range Hartree potential.
  | Using default value of  0.100000E-09 .
  | Verify using the multipole_threshold keyword.
  Defaulting to new monopole extrapolation.
  Density update method: automatic selection selected.
  Using density matrix based charge density update.
  Using density matrix based charge density update.
  Using packed matrix style: index .
  Geometry relaxation: A file "geometry.in.next_step" is written out by default after each step.
  | This file contains the geometry of the current relaxation step as well as
  | the current Hessian matrix needed to restart the relaxation algorithm.
  | If you do not want part or all of this information, use the keywords
  | "write_restart_geometry" or "hessian_to_restart_geometry" to switch the output off.
  Defaulting to use time-reversal symmetry for k-point grid.
  Charge integration errors on the 3D integration grid will be compensated
  by explicit normalization and distribution of residual charges.
  Use the "compensate_multipole_errors" flag to change this behaviour.
 
  Consistency checks for the contents of geometry.in are next.
 

  Range separation radius for Ewald summation (hartree_convergence_parameter):      5.00000000 bohr.
  Number of empty states per atom not set in control.in - providing a guess from actual geometry.
  | Total number of empty states used during s.c.f. cycle:       12
  If you use a very high smearing, use empty_states (per atom!) in control.in to increase this value.

  Structure-dependent array size parameters: 
  | Maximum number of distinct radial functions  :       26
  | Maximum number of basis functions            :      127
  | Number of Kohn-Sham states (occupied + empty):       49
------------------------------------------------------------

------------------------------------------------------------
          Preparing all fixed parts of the calculation.
------------------------------------------------------------
  Determining machine precision:
    2.225073858507201E-308
  Setting up grids for atomic and cluster calculations.

  Creating wave function, potential, and density for free atoms.

  Species: S

  List of occupied orbitals and eigenvalues:
    n    l              occ      energy [Ha]    energy [eV]
    1    0           2.0000       -88.680731     -2413.1255
    2    0           2.0000        -7.781719      -211.7513
    3    0           2.0000        -0.633662       -17.2428
    2    1           6.0000        -5.751976      -156.5192
    3    1           4.0000        -0.257086        -6.9957


  Species: Mo

  List of occupied orbitals and eigenvalues:
    n    l              occ      energy [Ha]    energy [eV]
    1    0           2.0000      -745.344654    -20281.8600
    2    0           2.0000      -103.288246     -2810.6162
    3    0           2.0000       -17.516687      -476.6533
    4    0           2.0000        -2.358559       -64.1796
    5    0           1.0000        -0.145159        -3.9500
    2    1           6.0000       -92.308627     -2511.8455
    3    1           6.0000       -13.936005      -379.2180
    4    1           6.0000        -1.408138       -38.3174
    3    2          10.0000        -8.119011      -220.9295
    4    2           5.0000        -0.132984        -3.6187


  Adding cutoff potential to free-atom effective potential.
  Creating fixed part of basis set: Ionic, confined, hydrogenic.
 
  S                    ion:

  List of free ionic orbitals and eigenvalues:
    n    l      energy [Ha]    energy [eV]
    1    0       -89.703778     -2440.9640
    2    0        -8.775428      -238.7916
    3    0        -1.470343       -40.0101
    2    1        -6.747660      -183.6132
    3    1        -1.048627       -28.5346


  List of ionic basis orbitals and eigenvalues:
    n    l      energy [Ha]    energy [eV]    outer radius [A]
    3    2        -0.495605       -13.4861       5.386362
    3    0        -1.470336       -40.0099       3.967934

 
  S                    hydrogenic:
 
  List of hydrogenic basis orbitals: 
    n    l      effective z      eigenvalue [eV]  inner max. [A]     outer max. [A]     outer radius [A]   
    2    1         1.800000       -11.0118           1.168531           1.168531           5.452614
    4    3         7.000000       -41.6672           1.212182           1.212182           5.066981
    4    2         6.200000       -32.6848           0.582121           1.814567           5.386362
    5    4        10.800000       -63.4785           1.227092           1.227092           4.766538
 
 
  Mo                   ion:

  List of free ionic orbitals and eigenvalues:
    n    l      energy [Ha]    energy [eV]
    1    0      -746.048685    -20301.0176
    2    0      -103.980912     -2829.4646
    3    0       -18.206601      -495.4268
    4    0        -3.040545       -82.7374
    2    1       -93.001013     -2530.6863
    3    1       -14.625827      -397.9890
    4    1        -2.084855       -56.7318
    3    2        -8.808854      -239.7011
    4    2        -0.765435       -20.8285


  List of ionic basis orbitals and eigenvalues:
    n    l      energy [Ha]    energy [eV]    outer radius [A]
    5    1        -0.465587       -12.6693       5.456393
    5    0        -0.650331       -17.6964       5.390095

 
  Mo                   hydrogenic:
 
  List of hydrogenic basis orbitals: 
    n    l      effective z      eigenvalue [eV]  inner max. [A]     outer max. [A]     outer radius [A]   
    4    3         8.400000       -60.0010           1.009788           1.009788           4.487018
    3    2         2.800000       -11.8048           1.687401           1.687401           5.456393
    5    4        12.000000       -78.3687           1.100005           1.100005           4.432498
 
  Creating atomic-like basis functions for current effective potential.

  Species S                   :

  List of atomic basis orbitals and eigenvalues:
    n    l      energy [Ha]    energy [eV]    outer radius [A]
    1    0       -88.680731     -2413.1255       0.682391
    2    0        -7.781719      -211.7513       2.289014
    3    0        -0.633662       -17.2428       5.256262
    2    1        -5.751976      -156.5192       2.555240
    3    1        -0.257086        -6.9957       5.386362


  Species Mo                  :

  List of atomic basis orbitals and eigenvalues:
    n    l      energy [Ha]    energy [eV]    outer radius [A]
    1    0      -745.344654    -20281.8600       0.247552
    2    0      -103.288246     -2810.6162       0.682864
    3    0       -17.516687      -476.6533       1.626637
    4    0        -2.358559       -64.1796       4.220963
    5    0        -0.145159        -3.9500       5.456393
    2    1       -92.308627     -2511.8455       0.699766
    3    1       -13.936005      -379.2180       1.793761
    4    1        -1.408138       -38.3174       4.828511
    3    2        -8.119011      -220.9295       2.181285
    4    2        -0.132984        -3.6187       5.390095

  Assembling full basis from fixed parts.
  | Species S :   atomic orbital   1 s accepted.
  | Species S :   atomic orbital   2 s accepted.
  | Species S :    ionic orbital   3 s accepted.
  | Species S :   atomic orbital   3 s accepted.
  | Species S :   atomic orbital   2 p accepted.
  | Species S :   atomic orbital   3 p accepted.
  | Species S :    hydro orbital   2 p accepted.
  | Species S :    ionic orbital   3 d accepted.
  | Species S :    hydro orbital   4 d accepted.
  | Species S :    hydro orbital   4 f accepted.
  | Species S :    hydro orbital   5 g accepted.
  | Species Mo :   atomic orbital   1 s accepted.
  | Species Mo :   atomic orbital   2 s accepted.
  | Species Mo :   atomic orbital   3 s accepted.
  | Species Mo :   atomic orbital   4 s accepted.
  | Species Mo :    ionic orbital   5 s accepted.
  | Species Mo :   atomic orbital   5 s accepted.
  | Species Mo :   atomic orbital   2 p accepted.
  | Species Mo :   atomic orbital   3 p accepted.
  | Species Mo :   atomic orbital   4 p accepted.
  | Species Mo :    ionic orbital   5 p accepted.
  | Species Mo :   atomic orbital   3 d accepted.
  | Species Mo :   atomic orbital   4 d accepted.
  | Species Mo :    hydro orbital   3 d accepted.
  | Species Mo :    hydro orbital   4 f accepted.
  | Species Mo :    hydro orbital   5 g accepted.
 
  Basis size parameters after reduction:
  | Total number of radial functions:       26
  | Total number of basis functions :      127
 
  Per-task memory consumption for arrays in subroutine allocate_ext:
  |           9.562516MB.
  Testing on-site integration grid accuracy.
  |  Species  Function  <phi|h_atom|phi> (log., in eV)  <phi|h_atom|phi> (rad., in eV)
           1        1              -2413.1254568977              -2413.1254096663
           1        2               -211.7513411281               -211.7513404762
           1        3                -16.9725280787                -16.9725279206
           1        4                  7.6024436204                  7.6024549059
           1        5               -156.5192206929               -156.5192205451
           1        6                 -6.9959757887                 -6.9959777655
           1        7                  6.8896462808                  6.8895564741
           1        8                  6.0214250550                  6.0214220200
           1        9                 19.6206468977                 19.6206494558
           1       10                 24.7008710786                 24.7008710738
           1       11                 47.5292252001                 47.5292260486
           2       12             -20281.8599610543             -20281.8584300616
           2       13              -2810.6161812280              -2810.6161551921
           2       14               -476.6533163555               -476.6533136395
           2       15                -64.1796433667                -64.1796426456
           2       16                 -3.3691762756                 -3.3691802887
           2       17                  4.4704608512                  4.4699102345
           2       18              -2511.8455406047              -2511.8455385741
           2       19               -379.2179896350               -379.2179882338
           2       20                -38.3173891619                -38.3173886619
           2       21                  0.2493245095                  0.2492931069
           2       22               -220.9295301098               -220.9295297081
           2       23                 -3.6195697699                 -3.6195754704
           2       24                  7.1428000922                  7.1426882355
           2       25                 23.3975871087                 23.3975871819
           2       26                 50.2449608881                 50.2449608586

  Preparing densities etc. for the partition functions (integrals / Hartree potential).
 Frequency grid relative error: 0.12418110983958286E-009                        
   
 Will use parallel mode: atoms     

  Preparations completed.
  max(cpu_time)          :      0.448 s.
  Wall clock time (cpu1) :      0.449 s.
------------------------------------------------------------

------------------------------------------------------------
          Begin self-consistency loop: Initialization.

          Date     :  20211214, Time     :  145151.987
------------------------------------------------------------

  Initializing index lists of integration centers etc. from given atomic structure:
  Mapping all atomic coordinates to central unit cell.

  Initializing the k-points
  Using symmetry for reducing the k-points
  | k-points reduced from:      100 to       52
  | Number of k-points                             :        52
  The eigenvectors in the calculations are COMPLEX.
  | Number of basis functions in the Hamiltonian integrals :      2094
  | Number of basis functions in a single unit cell        :       127
  | Number of centers in hartree potential         :       375
  | Number of centers in hartree multipole         :       189
  | Number of centers in electron density summation:       153
  | Number of centers in basis integrals           :       171
  | Number of centers in integrals                 :        72
  | Number of centers in hamiltonian               :       153
  | Consuming         48 KiB for k_phase.
  | Number of super-cells (origin) [n_cells]                     :         867
  | Number of super-cells (after PM_index) [n_cells]             :          60
  | Number of super-cells in hamiltonian [n_cells_in_hamiltonian]:          60
  | Size of matrix packed + index [n_hamiltonian_matrix_size] :      249580

  Initializing relaxation algorithms.
  Finished initialization of distributed Hessian storage.
  | Global dimension:        18
  | BLACS block size:         1
  | Number of workers:       18

  | Estimated reciprocal-space cutoff momentum G_max:         1.90186217 bohr^-1 .
  | Reciprocal lattice points for long-range Hartree potential:     648
  Using simple linear distribution as default method for k-point parallelism.
  * Using 160 tasks for Scalapack Eigenvalue solver.
  Detailed listing of tasks and assigned k-points:
   Task     0 k-point     1 on co4468
   Task     1 k-point     1 on co4468
   Task     2 k-point     1 on co4468
   Task     3 k-point     1 on co4468
   Task     4 k-point     2 on co4468
   Task     5 k-point     2 on co4468
   Task     6 k-point     2 on co4468
   Task     7 k-point     3 on co4468
   Task     8 k-point     3 on co4468
   Task     9 k-point     3 on co4468
   Task    10 k-point     4 on co4468
   Task    11 k-point     4 on co4468
   Task    12 k-point     4 on co4468
   Task    13 k-point     5 on co4468
   Task    14 k-point     5 on co4468
   Task    15 k-point     5 on co4468
   Task    16 k-point     6 on co4468
   Task    17 k-point     6 on co4468
   Task    18 k-point     6 on co4468
   Task    19 k-point     7 on co4468
   Task    20 k-point     7 on co4468
   Task    21 k-point     7 on co4468
   Task    22 k-point     8 on co4468
   Task    23 k-point     8 on co4468
   Task    24 k-point     8 on co4468
   Task    25 k-point     9 on co4468
   Task    26 k-point     9 on co4468
   Task    27 k-point     9 on co4468
   Task    28 k-point    10 on co4468
   Task    29 k-point    10 on co4468
   Task    30 k-point    10 on co4468
   Task    31 k-point    11 on co4468
   Task    32 k-point    11 on co4468
   Task    33 k-point    11 on co4468
   Task    34 k-point    12 on co4468
   Task    35 k-point    12 on co4468
   Task    36 k-point    12 on co4468
   Task    37 k-point    13 on co4468
   Task    38 k-point    13 on co4468
   Task    39 k-point    13 on co4468
   Task    40 k-point    14 on co4469
   Task    41 k-point    14 on co4469
   Task    42 k-point    14 on co4469
   Task    43 k-point    14 on co4469
   Task    44 k-point    15 on co4469
   Task    45 k-point    15 on co4469
   Task    46 k-point    15 on co4469
   Task    47 k-point    16 on co4469
   Task    48 k-point    16 on co4469
   Task    49 k-point    16 on co4469
   Task    50 k-point    17 on co4469
   Task    51 k-point    17 on co4469
   Task    52 k-point    17 on co4469
   Task    53 k-point    18 on co4469
   Task    54 k-point    18 on co4469
   Task    55 k-point    18 on co4469
   Task    56 k-point    19 on co4469
   Task    57 k-point    19 on co4469
   Task    58 k-point    19 on co4469
   Task    59 k-point    20 on co4469
   Task    60 k-point    20 on co4469
   Task    61 k-point    20 on co4469
   Task    62 k-point    21 on co4469
   Task    63 k-point    21 on co4469
   Task    64 k-point    21 on co4469
   Task    65 k-point    22 on co4469
   Task    66 k-point    22 on co4469
   Task    67 k-point    22 on co4469
   Task    68 k-point    23 on co4469
   Task    69 k-point    23 on co4469
   Task    70 k-point    23 on co4469
   Task    71 k-point    24 on co4469
   Task    72 k-point    24 on co4469
   Task    73 k-point    24 on co4469
   Task    74 k-point    25 on co4469
   Task    75 k-point    25 on co4469
   Task    76 k-point    25 on co4469
   Task    77 k-point    26 on co4469
   Task    78 k-point    26 on co4469
   Task    79 k-point    26 on co4469
   Task    80 k-point    27 on co4470
   Task    81 k-point    27 on co4470
   Task    82 k-point    27 on co4470
   Task    83 k-point    27 on co4470
   Task    84 k-point    28 on co4470
   Task    85 k-point    28 on co4470
   Task    86 k-point    28 on co4470
   Task    87 k-point    29 on co4470
   Task    88 k-point    29 on co4470
   Task    89 k-point    29 on co4470
   Task    90 k-point    30 on co4470
   Task    91 k-point    30 on co4470
   Task    92 k-point    30 on co4470
   Task    93 k-point    31 on co4470
   Task    94 k-point    31 on co4470
   Task    95 k-point    31 on co4470
   Task    96 k-point    32 on co4470
   Task    97 k-point    32 on co4470
   Task    98 k-point    32 on co4470
   Task    99 k-point    33 on co4470
   Task   100 k-point    33 on co4470
   Task   101 k-point    33 on co4470
   Task   102 k-point    34 on co4470
   Task   103 k-point    34 on co4470
   Task   104 k-point    34 on co4470
   Task   105 k-point    35 on co4470
   Task   106 k-point    35 on co4470
   Task   107 k-point    35 on co4470
   Task   108 k-point    36 on co4470
   Task   109 k-point    36 on co4470
   Task   110 k-point    36 on co4470
   Task   111 k-point    37 on co4470
   Task   112 k-point    37 on co4470
   Task   113 k-point    37 on co4470
   Task   114 k-point    38 on co4470
   Task   115 k-point    38 on co4470
   Task   116 k-point    38 on co4470
   Task   117 k-point    39 on co4470
   Task   118 k-point    39 on co4470
   Task   119 k-point    39 on co4470
   Task   120 k-point    40 on co4633
   Task   121 k-point    40 on co4633
   Task   122 k-point    40 on co4633
   Task   123 k-point    40 on co4633
   Task   124 k-point    41 on co4633
   Task   125 k-point    41 on co4633
   Task   126 k-point    41 on co4633
   Task   127 k-point    42 on co4633
   Task   128 k-point    42 on co4633
   Task   129 k-point    42 on co4633
   Task   130 k-point    43 on co4633
   Task   131 k-point    43 on co4633
   Task   132 k-point    43 on co4633
   Task   133 k-point    44 on co4633
   Task   134 k-point    44 on co4633
   Task   135 k-point    44 on co4633
   Task   136 k-point    45 on co4633
   Task   137 k-point    45 on co4633
   Task   138 k-point    45 on co4633
   Task   139 k-point    46 on co4633
   Task   140 k-point    46 on co4633
   Task   141 k-point    46 on co4633
   Task   142 k-point    47 on co4633
   Task   143 k-point    47 on co4633
   Task   144 k-point    47 on co4633
   Task   145 k-point    48 on co4633
   Task   146 k-point    48 on co4633
   Task   147 k-point    48 on co4633
   Task   148 k-point    49 on co4633
   Task   149 k-point    49 on co4633
   Task   150 k-point    49 on co4633
   Task   151 k-point    50 on co4633
   Task   152 k-point    50 on co4633
   Task   153 k-point    50 on co4633
   Task   154 k-point    51 on co4633
   Task   155 k-point    51 on co4633
   Task   156 k-point    51 on co4633
   Task   157 k-point    52 on co4633
   Task   158 k-point    52 on co4633
   Task   159 k-point    52 on co4633
  K-point:     1 Tasks:     4 split into      2 X      2 BLACS grid
  Calculating block size based on n_basis =          127  max_nprow =            3  max_npcol =            2
  ScaLAPACK block size set to:           16
  Allocating        0.062 MB for ovlp_complex
  Allocating        0.062 MB for ham_complex
  Allocating        0.062 MB for eigenvec_complex
  Required Scalapack workspace - INTEGER:            1  REAL:             1  COMPLEX:            1
  Partitioning the integration grid into batches with parallel hashing+maxmin method.
  | Number of batches:      924
  | Maximal batch size:     186
  | Minimal batch size:       1
  | Average batch size:      80.084
  | Standard deviation of batch sizes:      27.207

  Integration load balanced across   160 MPI tasks.
  Work distribution over tasks is as follows:
  Task     0 has        427 integration points.
  Task     1 has        430 integration points.
  Task     2 has        428 integration points.
  Task     3 has        496 integration points.
  Task     4 has        473 integration points.
  Task     5 has        427 integration points.
  Task     6 has        505 integration points.
  Task     7 has        471 integration points.
  Task     8 has        524 integration points.
  Task     9 has        433 integration points.
  Task    10 has        455 integration points.
  Task    11 has        428 integration points.
  Task    12 has        473 integration points.
  Task    13 has        502 integration points.
  Task    14 has        476 integration points.
  Task    15 has        427 integration points.
  Task    16 has        577 integration points.
  Task    17 has        469 integration points.
  Task    18 has        436 integration points.
  Task    19 has        435 integration points.
  Task    20 has        492 integration points.
  Task    21 has        473 integration points.
  Task    22 has        465 integration points.
  Task    23 has        472 integration points.
  Task    24 has        473 integration points.
  Task    25 has        469 integration points.
  Task    26 has        506 integration points.
  Task    27 has        454 integration points.
  Task    28 has        441 integration points.
  Task    29 has        552 integration points.
  Task    30 has        435 integration points.
  Task    31 has        446 integration points.
  Task    32 has        433 integration points.
  Task    33 has        522 integration points.
  Task    34 has        552 integration points.
  Task    35 has        476 integration points.
  Task    36 has        525 integration points.
  Task    37 has        427 integration points.
  Task    38 has        427 integration points.
  Task    39 has        508 integration points.
  Task    40 has        475 integration points.
  Task    41 has        429 integration points.
  Task    42 has        506 integration points.
  Task    43 has        454 integration points.
  Task    44 has        594 integration points.
  Task    45 has        431 integration points.
  Task    46 has        452 integration points.
  Task    47 has        435 integration points.
  Task    48 has        433 integration points.
  Task    49 has        440 integration points.
  Task    50 has        427 integration points.
  Task    51 has        432 integration points.
  Task    52 has        427 integration points.
  Task    53 has        443 integration points.
  Task    54 has        457 integration points.
  Task    55 has        474 integration points.
  Task    56 has        488 integration points.
  Task    57 has        431 integration points.
  Task    58 has        426 integration points.
  Task    59 has        438 integration points.
  Task    60 has        438 integration points.
  Task    61 has        487 integration points.
  Task    62 has        440 integration points.
  Task    63 has        451 integration points.
  Task    64 has        502 integration points.
  Task    65 has        484 integration points.
  Task    66 has        426 integration points.
  Task    67 has        536 integration points.
  Task    68 has        449 integration points.
  Task    69 has        477 integration points.
  Task    70 has        471 integration points.
  Task    71 has        470 integration points.
  Task    72 has        554 integration points.
  Task    73 has        505 integration points.
  Task    74 has        473 integration points.
  Task    75 has        442 integration points.
  Task    76 has        449 integration points.
  Task    77 has        546 integration points.
  Task    78 has        429 integration points.
  Task    79 has        590 integration points.
  Task    80 has        445 integration points.
  Task    81 has        430 integration points.
  Task    82 has        468 integration points.
  Task    83 has        509 integration points.
  Task    84 has        468 integration points.
  Task    85 has        507 integration points.
  Task    86 has        608 integration points.
  Task    87 has        468 integration points.
  Task    88 has        428 integration points.
  Task    89 has        435 integration points.
  Task    90 has        428 integration points.
  Task    91 has        437 integration points.
  Task    92 has        445 integration points.
  Task    93 has        437 integration points.
  Task    94 has        427 integration points.
  Task    95 has        507 integration points.
  Task    96 has        440 integration points.
  Task    97 has        467 integration points.
  Task    98 has        428 integration points.
  Task    99 has        435 integration points.
  Task   100 has        429 integration points.
  Task   101 has        428 integration points.
  Task   102 has        432 integration points.
  Task   103 has        439 integration points.
  Task   104 has        503 integration points.
  Task   105 has        481 integration points.
  Task   106 has        428 integration points.
  Task   107 has        427 integration points.
  Task   108 has        460 integration points.
  Task   109 has        426 integration points.
  Task   110 has        465 integration points.
  Task   111 has        469 integration points.
  Task   112 has        464 integration points.
  Task   113 has        430 integration points.
  Task   114 has        475 integration points.
  Task   115 has        505 integration points.
  Task   116 has        467 integration points.
  Task   117 has        432 integration points.
  Task   118 has        467 integration points.
  Task   119 has        429 integration points.
  Task   120 has        503 integration points.
  Task   121 has        436 integration points.
  Task   122 has        428 integration points.
  Task   123 has        440 integration points.
  Task   124 has        441 integration points.
  Task   125 has        505 integration points.
  Task   126 has        508 integration points.
  Task   127 has        428 integration points.
  Task   128 has        466 integration points.
  Task   129 has        431 integration points.
  Task   130 has        439 integration points.
  Task   131 has        433 integration points.
  Task   132 has        469 integration points.
  Task   133 has        469 integration points.
  Task   134 has        432 integration points.
  Task   135 has        435 integration points.
  Task   136 has        506 integration points.
  Task   137 has        426 integration points.
  Task   138 has        433 integration points.
  Task   139 has        431 integration points.
  Task   140 has        474 integration points.
  Task   141 has        476 integration points.
  Task   142 has        427 integration points.
  Task   143 has        436 integration points.
  Task   144 has        451 integration points.
  Task   145 has        548 integration points.
  Task   146 has        426 integration points.
  Task   147 has        477 integration points.
  Task   148 has        437 integration points.
  Task   149 has        442 integration points.
  Task   150 has        430 integration points.
  Task   151 has        444 integration points.
  Task   152 has        434 integration points.
  Task   153 has        471 integration points.
  Task   154 has        430 integration points.
  Task   155 has        441 integration points.
  Task   156 has        455 integration points.
  Task   157 has        520 integration points.
  Task   158 has        426 integration points.
  Task   159 has        470 integration points.
  Initializing partition tables, free-atom densities, potentials, etc. across the integration grid (initialize_grid_storage).
  | initialize_grid_storage: Actual outermost partition radius vs. multipole_radius_free
  | (-- VB: in principle, multipole_radius_free should be larger, hence this output)
  | Species        1: Confinement radius =              6.000000000000000 AA, multipole_radius_free =              6.012827091137924 AA.
  | Species        1: outer_partition_radius set to              6.012827091137924 AA .
  | Species        2: Confinement radius =              6.000000000000000 AA, multipole_radius_free =              6.016994434057369 AA.
  | Species        2: outer_partition_radius set to              6.016994434057369 AA .
  | The sparse table of interatomic distances needs        292.26 kbyte instead of       233.93 kbyte of memory.
  | Using the partition_type stratmann_smoother will reduce your memory usage.
  | Net number of integration points:    73998
  | of which are non-zero points    :    60048
  | Numerical average free-atom electrostatic potential    :     -1.12068931 eV
  Renormalizing the initial density to the exact electron count on the 3D integration grid.
  | Initial density: Formal number of electrons (from input files) :      74.0000000000
  | Integrated number of electrons on 3D grid     :      73.9999280797
  | Charge integration error                      :      -0.0000719203
  | Normalization factor for density and gradient :       1.0000009719
  Renormalizing the free-atom superposition density to the exact electron count on the 3D integration grid.
  | Formal number of electrons (from input files) :      74.0000000000
  | Integrated number of electrons on 3D grid     :      73.9999280797
  | Charge integration error                      :      -0.0000719203
  | Normalization factor for density and gradient :       1.0000009719
  Obtaining max. number of non-zero basis functions in each batch (get_n_compute_maxes).
  | Maximal number of non-zero basis functions:     1099 in task     0
  | Maximal number of non-zero basis functions:     1112 in task     1
  | Maximal number of non-zero basis functions:     1127 in task     2
  | Maximal number of non-zero basis functions:     1125 in task     3
  | Maximal number of non-zero basis functions:     1165 in task     4
  | Maximal number of non-zero basis functions:     1060 in task     5
  | Maximal number of non-zero basis functions:     1138 in task     6
  | Maximal number of non-zero basis functions:     1105 in task     7
  | Maximal number of non-zero basis functions:     1183 in task     8
  | Maximal number of non-zero basis functions:     1106 in task     9
  | Maximal number of non-zero basis functions:     1032 in task    10
  | Maximal number of non-zero basis functions:     1121 in task    11
  | Maximal number of non-zero basis functions:     1144 in task    12
  | Maximal number of non-zero basis functions:     1052 in task    13
  | Maximal number of non-zero basis functions:     1046 in task    14
  | Maximal number of non-zero basis functions:     1030 in task    15
  | Maximal number of non-zero basis functions:     1124 in task    16
  | Maximal number of non-zero basis functions:     1119 in task    17
  | Maximal number of non-zero basis functions:     1192 in task    18
  | Maximal number of non-zero basis functions:     1083 in task    19
  | Maximal number of non-zero basis functions:     1105 in task    20
  | Maximal number of non-zero basis functions:     1118 in task    21
  | Maximal number of non-zero basis functions:     1106 in task    22
  | Maximal number of non-zero basis functions:     1123 in task    23
  | Maximal number of non-zero basis functions:     1110 in task    24
  | Maximal number of non-zero basis functions:     1107 in task    25
  | Maximal number of non-zero basis functions:     1126 in task    26
  | Maximal number of non-zero basis functions:     1126 in task    27
  | Maximal number of non-zero basis functions:     1079 in task    28
  | Maximal number of non-zero basis functions:     1090 in task    29
  | Maximal number of non-zero basis functions:     1102 in task    30
  | Maximal number of non-zero basis functions:     1115 in task    31
  | Maximal number of non-zero basis functions:     1013 in task    32
  | Maximal number of non-zero basis functions:     1161 in task    33
  | Maximal number of non-zero basis functions:     1100 in task    34
  | Maximal number of non-zero basis functions:     1191 in task    35
  | Maximal number of non-zero basis functions:     1134 in task    36
  | Maximal number of non-zero basis functions:     1066 in task    37
  | Maximal number of non-zero basis functions:     1162 in task    38
  | Maximal number of non-zero basis functions:     1145 in task    39
  | Maximal number of non-zero basis functions:     1110 in task    40
  | Maximal number of non-zero basis functions:     1053 in task    41
  | Maximal number of non-zero basis functions:     1164 in task    42
  | Maximal number of non-zero basis functions:     1118 in task    43
[...]
  | Solution of K.-S. eqns.                    :        0.007 s           0.007 s
  | Total energy evaluation                    :        0.000 s           0.001 s

  Partial memory accounting:
  | Current value for overall tracked memory usage:
  |   Minimum:        2.766 MB (on task   3)
  |   Maximum:        2.895 MB (on task   4)
  |   Average:        2.843 MB
  | Peak value for overall tracked memory usage:
  |   Minimum:       44.152 MB (on task  91 after allocating d_wave)
  |   Maximum:       51.162 MB (on task  82 after allocating d_wave)
  |   Average:       47.404 MB
  | Largest tracked array allocation so far:
  |   Minimum:        9.622 MB (hamiltonian_shell on task  91)
  |   Maximum:       11.637 MB (density_matrix_con on task  82)
  |   Average:       10.471 MB
  Note:  These values currently only include a subset of arrays which are explicitly tracked.
  The "true" memory usage will be greater.
------------------------------------------------------------
  Obtaining max. number of non-zero basis functions in each batch .
  Evaluating KS electron density on previously omitted grid points, using the density matrix.
  Evaluating density matrix
  Finished density matrix calculation
  | Time :     0.000 s

  Entering Libmbd.
  Libmbd: VdW method: mbd-nl
  Libmbd: Evaluating kinetic energy density...

  Evaluating density matrix
  Finished density matrix calculation
  | Time :     0.001 s

  Libmbd: Performing Hirshfeld analysis...
  Libmbd: Calculating MBD energy...
  Libmbd: Evaluated energy: -0.29934956535801780E-001

  Leaving Libmbd.


  Total energy components:
  | Sum of eigenvalues            :       -2929.70322741 Ha      -79721.28099202 eV
  | XC energy correction          :        -175.60316090 Ha       -4778.40513078 eV
  | XC potential correction       :         228.32009793 Ha        6212.90597374 eV
  | Free-atom electrostatic energy:       -2011.94078707 Ha      -54747.69434806 eV
  | Hartree energy correction     :           1.39524543 Ha          37.96655998 eV
  | vdW energy correction         :          -0.02993496 Ha          -0.81457161 eV
  | Entropy correction            :          -0.00000000 Ha          -0.00000000 eV
  | ---------------------------
  | Total energy                  :       -4887.56176698 Ha     -132997.32250875 eV
  | Total energy, T -> 0          :       -4887.56176698 Ha     -132997.32250875 eV  <-- do not rely on this value for anything but (periodic) metals
  | Electronic free energy        :       -4887.56176698 Ha     -132997.32250875 eV

  Derived energy quantities:
  | Kinetic energy                :        5018.15062843 Ha      136550.82622908 eV
  | Electrostatic energy          :       -9730.07929955 Ha     -264768.92903543 eV
  | Energy correction for multipole
  | error in Hartree potential    :          -0.00087282 Ha          -0.02375077 eV
  | Sum of eigenvalues per atom                           :      -26573.76033067 eV
  | Total energy (T->0) per atom                          :      -44332.44083625 eV  <-- do not rely on this value for anything but (periodic) metals
  | Electronic free energy per atom                       :      -44332.44083625 eV

  atomic forces [eV/Ang]:
  -----------------------
  atom #    1
   Hellmann-Feynman              : -0.126356E-02  0.217668E-03 -0.111923E-05
   Ionic forces                  :  0.000000E+00  0.000000E+00  0.000000E+00
   Multipole                     :  0.505420E-04 -0.482590E-03 -0.130683E-10
   Hartree pot. SCF incomplete   : -0.602233E-06  0.226985E-06  0.506140E-06
   Pulay + GGA                   :  0.119215E-02  0.385354E-03  0.505844E-06
   Van der Waals                 : -0.465409E-03  0.269731E-03 -0.575588E-10
   ----------------------------------------------------------------
   Total forces(   1)            : -0.486887E-03  0.390390E-03 -0.107314E-06
  atom #    2
   Hellmann-Feynman              :  0.721499E-03 -0.257234E-03  0.248455E+02
   Ionic forces                  :  0.000000E+00  0.000000E+00  0.000000E+00
   Multipole                     :  0.187448E-04 -0.904863E-05  0.599055E-01
   Hartree pot. SCF incomplete   :  0.447624E-06 -0.231458E-06 -0.149333E-05
   Pulay + GGA                   : -0.729274E-03  0.403536E-03 -0.248119E+02
   Van der Waals                 :  0.232705E-03 -0.134865E-03 -0.936457E-01
   ----------------------------------------------------------------
   Total forces(   2)            :  0.244122E-03  0.215727E-05 -0.465415E-04
  atom #    3
   Hellmann-Feynman              :  0.721499E-03 -0.257233E-03 -0.248455E+02
   Ionic forces                  :  0.000000E+00  0.000000E+00  0.000000E+00
   Multipole                     :  0.187448E-04 -0.904863E-05 -0.599055E-01
   Hartree pot. SCF incomplete   :  0.447635E-06 -0.231838E-06  0.159106E-05
   Pulay + GGA                   : -0.729267E-03  0.403534E-03  0.248119E+02
   Van der Waals                 :  0.232705E-03 -0.134865E-03  0.936457E-01
   ----------------------------------------------------------------
   Total forces(   3)            :  0.244129E-03  0.215548E-05  0.464431E-04

  Symmetry information by spglib:
  | Precision set to  0.1E-04
  | Number of Operations  : 2
  | Space group           : 6
  | International         : Pm Y     j
  | Schoenflies           : Cs^1
  | Symmetrizing total forces.


  Analytical stress tensor components [eV]         xx                  yy                  zz                  xy                  xz                  yz
  -----------------------------------------------------------------------------------------------------------------------------------------------------------
    Nuclear Hellmann-Feynman      :    -0.1375497367E+02   -0.1375931524E+02   -0.2689268027E+00   -0.2179848862E-02   -0.6080936875E-11    0.2242273017E-09
    Multipole Hellmann-Feynman    :    -0.7677224823E+02   -0.7677753568E+02   -0.6096761985E+02   -0.3838489918E-02   -0.6187152508E-11    0.1801041425E-09
    On-site Multipole corrections :    -0.5727483371E+00   -0.5731256653E+00   -0.5728329530E+00   -0.7509675691E-07    0.2706879222E-10    0.1140756244E-10
    Strain deriv. of the orbitals :     0.9013613503E+02    0.9014248938E+02    0.6154140924E+02    0.2850846976E-02    0.7759498892E-09   -0.2873840575E-08
    vdW correction                :     0.9637271948E+00    0.9671866362E+00    0.2938617298E+00    0.3001107879E-02    0.3904668762E-12   -0.2234092853E-12
  -----------------------------------------------------------------------------------------------------------------------------------------------------------
  Sum of all contributions        :    -0.1080139031E-03   -0.3005665393E-03    0.2589136324E-01   -0.1664590210E-03    0.7911410589E-09   -0.2458324977E-08


  Symmetry information by spglib:
  | Precision set to  0.1E-04
  | Number of Operations  : 2
  | Space group           : 6
  | International         : Pm Y
  | Schoenflies           : Cs^1
  | Symmetrizing stress
  | Symmetrizing stress
  +-------------------------------------------------------------------+
  |              Analytical stress tensor - Symmetrized               |
  |                  Cartesian components [eV/A**3]                   |
  +-------------------------------------------------------------------+
  |                x                y                z                |
  |                                                                   |
  |  x        -0.00000013      -0.00000019       0.00000000           |
  |  y        -0.00000019      -0.00000035       0.00000000           |
  |  z         0.00000000       0.00000000       0.00003011           |
  |                                                                   |
  |  Pressure:      -0.00000988   [eV/A**3]                           |
  |                                                                   |
  +-------------------------------------------------------------------+

 * Warning: Stress tensor is anisotropic. Be aware that pressure is an isotropic quantity.

  Timings for VdW correction (Tkatchenko-Scheffler 2009 or later):
  | CPU time:        1.172 s, Wall clock time:        1.172 s.
  Removing unitary transformations (pure translations, rotations) from forces on atoms.
  Atomic forces before filtering:
  | Net force on center of mass :   0.136329E-05  0.394702E-03  0.000000E+00 eV/A
  Atomic forces after filtering:
  | Net force on center of mass :   0.000000E+00  0.000000E+00  0.000000E+00 eV/A

  Energy and forces in a compact form:
  | Total energy uncorrected      :         -0.132997322508754E+06 eV
  | Total energy corrected        :         -0.132997322508754E+06 eV  <-- do not rely on this value for anything but (periodic) metals
  | Electronic free energy        :         -0.132997322508754E+06 eV
  Total atomic forces (unitary forces cleaned) [eV/Ang]:
  |    1         -0.487341517893591E-03          0.258822230068945E-03          0.000000000000000E+00
  |    2          0.243670758946795E-03         -0.129411115034473E-03         -0.464923053192047E-04
  |    3          0.243670758946795E-03         -0.129411115034473E-03          0.464923053192047E-04

  ------------------------------------ 
  Start decomposition of the XC Energy 
  ------------------------------------ 
  X and C from original XC functional choice 
  Hartree-Fock Energy :          0.000000000 Ha              0.000000000 eV
  X Energy            :       -172.120646992 Ha          -4683.641105698 eV
  C Energy            :         -3.482513912 Ha            -94.764025086 eV
  Total XC Energy     :       -175.603160904 Ha          -4778.405130785 eV
  ------------------------------------ 
  LDA X and C from self-consistent density 
  X Energy LDA        :       -162.574271654 Ha          -4423.871015776 eV
  C Energy LDA        :         -6.409947523 Ha           -174.423546672 eV
  ------------------------------------ 
  End decomposition of the XC Energy 
  ------------------------------------ 

------------------------------------------------------------
  Relaxation / MD: End force evaluation.       :  max(cpu_time)    wall_clock(cpu1)
  | Time for this force evaluation             :       10.412 s          10.421 s

------------------------------------------------------------
  Geometry optimization: Attempting to predict improved coordinates.

  +-------------------------------------------------------------------+
  | Generalized derivatives on lattice vectors [eV/A]                 |
  +-------------------------------------------------------------------+
  |lattice_vector      -0.00006473      -0.00010782      -0.00000000  |
  |lattice_vector      -0.00006095      -0.00011006      -0.00000000  |
  |lattice_vector       0.00000000       0.00000000       0.00025934  |
  +-------------------------------------------------------------------+
  | Forces on lattice vectors cleaned from atomic contributions [eV/A]|
  +-------------------------------------------------------------------+
  |lattice_vector       0.00006473       0.00010782       0.00000000  |
  |lattice_vector       0.00006095       0.00011006       0.00000000  |
  |lattice_vector      -0.00000000      -0.00000000      -0.00025934  |
  +-------------------------------------------------------------------+
  Removing unitary transformations (pure translations, rotations) from forces on atoms.
  Atomic forces before filtering:
  | Net force on center of mass :   0.000000E+00  0.000000E+00  0.000000E+00 eV/A
  Atomic forces after filtering:
  | Net force on center of mass :   0.000000E+00  0.000000E+00  0.000000E+00 eV/A
  Net remaining forces (excluding translations, rotations) in present geometry:
  || Forces on atoms   || =   0.487342E-03 eV/A.
  || Forces on lattice || =   0.259340E-03 eV/A^3.
  Maximum force component is  0.487342E-03 eV/A.
  Present geometry is converged.

------------------------------------------------------------
  Final atomic structure:
                         x [A]             y [A]             z [A]
  lattice_vector         3.15367879       -0.00018641        0.00000000
  lattice_vector        -1.57697847        2.73105334        0.00000000
  lattice_vector         0.00000000        0.00000000       99.83551391

            atom        -0.78841923       -0.45509555       -0.00000000  Mo
            atom         0.78840787        0.45510448        1.56898167  S
            atom         0.78840787        0.45510448       -1.56898167  S

  Fractional coordinates:
                         L1                L2                L3
       atom_frac        -0.33333726       -0.16666012       -0.00000000  Mo
       atom_frac         0.33333530        0.16666340        0.01571567  S
       atom_frac         0.33333530        0.16666340       -0.01571567  S
------------------------------------------------------------

------------------------------------------------------------------------------
  Final output of selected total energy values:

  The following output summarizes some interesting total energy values
  at the end of a run (AFTER all relaxation, molecular dynamics, etc.).

  | Total energy of the DFT / Hartree-Fock s.c.f. calculation      :        -132997.322508754 eV
  | Final zero-broadening corrected energy (caution - metals only) :        -132997.322508754 eV
  | For reference only, the value of 1 Hartree used in FHI-aims is :             27.211384500 eV
  | For reference only, the overall average (free atom contribution
  | + realspace contribution) of the electrostatic potential after
  | s.c.f. convergence is                                          :             -1.128630496 eV

  Before relying on these values, please be sure to understand exactly which
  total energy value is referred to by a given number. Different objects may
  all carry the same name 'total energy'. Definitions:

  Total energy of the DFT / Hartree-Fock s.c.f. calculation:
  | Note that this energy does not include ANY quantities calculated after the
  | s.c.f. cycle, in particular not ANY RPA, MP2, etc. many-body perturbation terms.

  Final zero-broadening corrected energy:
  | For metallic systems only, a broadening of the occupation numbers at the Fermi
  | level can be extrapolated back to zero broadening by an electron-gas inspired
  | formula. For all systems that are not real metals, this value can be
  | meaningless and should be avoided.

------------------------------------------------------------------------------
  Methods described in the following list of references were used in this FHI-aims run.
  If you publish the results, please make sure to cite these reference if they apply.
  FHI-aims is an academic code, and for our developers (often, Ph.D. students
  and postdocs), scientific credit in the community is essential.
  Thank you for helping us!

  For any use of FHI-aims, please cite:

    Volker Blum, Ralf Gehrke, Felix Hanke, Paula Havu, Ville Havu,
    Xinguo Ren, Karsten Reuter, and Matthias Scheffler
    'Ab initio molecular simulations with numeric atom-centered orbitals'
    Computer Physics Communications 180, 2175-2196 (2009)
    http://dx.doi.org/10.1016/j.cpc.2009.06.022


  For the analytical stress tensor used in your run, please cite:

    Franz Knuth, Christian Carbogno, Viktor Atalla, Volker Blum, Matthias Scheffler
    'All-electron formalism for total energy strain derivatives and
    stress tensor components for numeric atom-centered orbitals'
    Computer Physics Communications 190, 33-50 (2015).
    http://dx.doi.org/10.1016/j.cpc.2015.01.003


  The provided symmetry information was generated with SPGlib:

    Atsushi Togo, Yusuke Seto, Dimitar Pashov
    SPGlib 1.7.3 obtained from http://spglib.sourceforge.net
    Copyright (C) 2008 Atsushi Togo


  The ELSI infrastructure was used in your run to solve the Kohn-Sham electronic structure.
  Please check out http://elsi-interchange.org to learn more.
  If scalability is important for your project, please acknowledge ELSI by citing:

    V. W-z. Yu, F. Corsetti, A. Garcia, W. P. Huhn, M. Jacquelin, W. Jia,
    B. Lange, L. Lin, J. Lu, W. Mi, A. Seifitokaldani, A. Vazquez-Mayagoitia,
    C. Yang, H. Yang, and V. Blum
    'ELSI: A unified software interface for Kohn-Sham electronic structure solvers'
    Computer Physics Communications 222, 267-285 (2018).
    http://dx.doi.org/10.1016/j.cpc.2017.09.007


  For the real-space grid partitioning and parallelization used in this calculation, please cite:

    Ville Havu, Volker Blum, Paula Havu, and Matthias Scheffler,
    'Efficient O(N) integration for all-electron electronic structure calculation'
    'using numerically tabulated basis functions'
    Journal of Computational Physics 228, 8367-8379 (2009).
    http://dx.doi.org/10.1016/j.jcp.2009.08.008

  Of course, there are many other important community references, e.g., those cited in the
  above references. Our list is limited to references that describe implementations in the
  FHI-aims code. The reason is purely practical (length of this list) - please credit others as well.

------------------------------------------------------------
          Leaving FHI-aims.
          Date     :  20211214, Time     :  145336.657

          Computational steps:
          | Number of self-consistency cycles          :          118
          | Number of SCF (re)initializations          :            9
          | Number of relaxation steps                 :            8

          Detailed time accounting                     :  max(cpu_time)    wall_clock(cpu1)
          | Total time                                 :      105.138 s         105.228 s
          | Preparation time                           :        0.448 s           0.449 s
          | Boundary condition initalization           :        2.350 s           2.320 s
          | Grid partitioning                          :        0.403 s           0.402 s
          | Preloading free-atom quantities on grid    :        0.214 s           0.213 s
          | Free-atom superposition energy             :        0.021 s           0.023 s
          | Total time for integrations                :       13.394 s          13.391 s
          | Total time for solution of K.-S. equations :        0.946 s           0.950 s
          | Total time for EV reorthonormalization     :        0.017 s           0.010 s
          | Total time for density & force components  :       62.955 s          62.969 s
          | Total time for mixing & preconditioning    :        1.031 s           1.023 s
          | Total time for Hartree multipole update    :        0.228 s           0.228 s
          | Total time for Hartree multipole sum       :        9.141 s           9.146 s
          | Total time for total energy evaluation     :        0.051 s           0.037 s
          | Total time NSC force correction            :        2.657 s           2.658 s
          | Total time for scaled ZORA corrections     :        0.000 s           0.000 s
          | Total time for vdW correction              :       10.564 s          10.568 s

          Partial memory accounting:
          | Residual value for overall tracked memory usage across tasks:     0.000000 MB (should be 0.000000 MB)
          | Peak values for overall tracked memory usage:
          |   Minimum:       44.152 MB (on task  91 after allocating d_wave)
          |   Maximum:       51.162 MB (on task  82 after allocating d_wave)
          |   Average:       47.404 MB
          | Largest tracked array allocation:
          |   Minimum:        9.622 MB (hamiltonian_shell on task  91)
          |   Maximum:       11.637 MB (density_matrix_con on task  82)
          |   Average:       10.471 MB
          Note:  These values currently only include a subset of arrays which are explicitly tracked.
          The "true" memory usage will be greater.

          Have a nice day.
------------------------------------------------------------
