------------------------------------------------------------
          Invoking FHI-aims ...

          When using FHI-aims, please cite the following reference:

            Volker Blum, Ralf Gehrke, Felix Hanke, Paula Havu,
            Ville Havu, Xinguo Ren, Karsten Reuter, and Matthias Scheffler,
            'Ab Initio Molecular Simulations with Numeric Atom-Centered Orbitals',
            Computer Physics Communications 180, 2175-2196 (2009)

          In addition, many other developments in FHI-aims are likely important for
          your particular application. A partial list of references is given at the end of
          this file. Thank you for giving credit to the authors of these developments.

          For any questions about FHI-aims, please visit our slack channel at

            https://fhi-aims.slack.com

          and our main development and support site at

            https://aims-git.rz-berlin.mpg.de .

          The latter site, in particular, has a wiki to collect information, as well
          as an issue tracker to log discussions, suggest improvements, and report issues
          or bugs. https://aims-git.rz-berlin.mpg.de is also the main development site
          of the project and all new and updated code versions can be obtained there.
          Please send an email to aims-coordinators@fhi-berlin.mpg.de and we will add
          you to these sites. They are for you and everyone is welcome there.

------------------------------------------------------------



  Date     :  20221024, Time     :  150818.307
  Time zero on CPU 1             :   0.615706000000000E+00  s.
  Internal wall clock time zero  :           435856098.307  s.

  FHI-aims created a unique identifier for this run for later identification
  aims_uuid : AF63008C-428B-4B02-A4F2-08EB032FC918

  Build configuration of the current instance of FHI-aims
  -------------------------------------------------------
  FHI-aims version      : 221007
  Commit number         : 23560fd05
  CMake host system     : Linux-5.3.18-150300.59.87-default
  CMake version         : 3.17.0
  Fortran compiler      : /mpcdf/soft/SLE_15/packages/x86_64/intel_oneapi/2021.3/mpi/2021.3.0/bin/mpiifort (Intel) version 20.2.3.20210609
  Fortran compiler flags: -O3 -ip -fp-model precise
  C compiler            : /mpcdf/soft/SLE_15/packages/x86_64/intel/2021.3.0/bin/icc (Intel) version 20.2.3.20210609
  C compiler flags      : -O3 -ip -fp-model precise -std=gnu99
  CUDA compiler         : /mpcdf/soft/SLE_15/packages/x86_64/cuda/11.6.2/bin/nvcc
  CUDA compiler flags   : -O3 -DAdd_ -lcublas
  HIP compiler          :
  HIP compiler flags    :
  HIP GPU arch          :
  ELPA2 kernel          : AVX512
  Using MPI
  Using ScaLAPACK
  Using LibXC
  Using CUDA
  Using i-PI
  Using RLSY
  Linking against: /mpcdf/soft/SLE_15/packages/x86_64/cuda/11.6.2/lib64/libcublas.so
                   /mpcdf/soft/SLE_15/packages/x86_64/cuda/11.6.2/lib64/libcudart.so
                   /mpcdf/soft/SLE_15/packages/x86_64/intel_oneapi/2021.3/mkl/latest/lib/intel64/libmkl_intel_lp64.so
                   /mpcdf/soft/SLE_15/packages/x86_64/intel_oneapi/2021.3/mkl/latest/lib/intel64/libmkl_sequential.so
                   /mpcdf/soft/SLE_15/packages/x86_64/intel_oneapi/2021.3/mkl/latest/lib/intel64/libmkl_core.so
                   /mpcdf/soft/SLE_15/packages/x86_64/intel_oneapi/2021.3/mkl/latest/lib/intel64/libmkl_blacs_intelmpi_lp64.so
                   /mpcdf/soft/SLE_15/packages/x86_64/intel_oneapi/2021.3/mkl/latest/lib/intel64/libmkl_scalapack_lp64.so

  Using       16 parallel tasks.
  Task        0 on host adag062 reporting.
  Task        1 on host adag062 reporting.
  Task        2 on host adag062 reporting.
  Task        3 on host adag062 reporting.
  Task        4 on host adag063 reporting.
  Task        5 on host adag063 reporting.
  Task        6 on host adag063 reporting.
  Task        7 on host adag063 reporting.
  Task        8 on host adag064 reporting.
  Task        9 on host adag064 reporting.
  Task       10 on host adag064 reporting.
  Task       11 on host adag064 reporting.
  Task       12 on host adag065 reporting.
  Task       13 on host adag065 reporting.
  Task       14 on host adag065 reporting.
  Task       15 on host adag065 reporting.

  Performing system and environment tests:
  | Environment variable OMP_NUM_THREADS correctly set to 1.
  | Checking for ScaLAPACK...
  | Testing pdtran()...
  | All pdtran() tests passed.

  Obtaining array dimensions for all initial allocations:
  
  -----------------------------------------------------------------------
  Parsing control.in (first pass over file, find array dimensions only).
  The contents of control.in will be repeated verbatim below
  unless switched off by setting 'verbatim_writeout .false.' .
  in the first line of control.in .
  -----------------------------------------------------------------------
  
    xc                 hse06  0.11
    hse_unit b
    spin               none
   # default_initial_moment 1
    charge      0.0
    relativistic       atomic_zora scalar
    #elsi_restart read
    # SCF settings
    #relax_geometry bfgs 1E-3
    #relax_unit_cell fixed_angles
    #use_symmetric_forces .true.
    occupation_type gaussian       0.1
    # k-grid settings  (to be adjusted)
    k_grid  4 4 1
    #empty_states 8
    use_dipole_correction
    #include_spin_orbit non_self_consistent
    # sc_accuracy_rho    1E-4
    #    sc_accuracy_eev    1E-3
    #    sc_accuracy_etot   1E-4
    #    sc_accuracy_forces 1E-2
    many_body_dispersion_nl    beta=0.83
    ################################################################################
    #
    #  FHI-aims code project
    #  Volker Blum, 2018
    #
    #  Suggested "intermediate" defaults for Se atom (to be pasted into control.in file)
    #
    #  2020/09/15 These "intermediate" settings are identical to past "tight" defaults
    #             and differ only in the "g" function that is now included in "tight".
    #
    ################################################################################
      species        Se
    #     global species definitions
        nucleus             34
        mass                78.96
    #
        l_hartree           6
    #
        cut_pot             4.0          2.0  1.0
        basis_dep_cutoff    1e-4
    #
        radial_base         55 7.0
        radial_multiplier   2
        angular_grids       specified
          division   0.0830  110
          division   0.1357  194
          division   0.7377  302
          division   0.8610  434
    #      division   0.9640  590
    #      division   1.0773  770
    #      division   2.5539  974
    #      outer_grid  974
          outer_grid  434
    ################################################################################
    #
    #  Definition of "minimal" basis
    #
    ################################################################################
    #     valence basis states
        valence      4  s   2.
        valence      4  p   4.
        valence      3  d  10.
    #     ion occupancy
        ion_occ      4  s   1.
        ion_occ      4  p   3.
        ion_occ      3  d  10.
    ################################################################################
    #
    #  Suggested additional basis functions. For production calculations,
    #  uncomment them one after another (the most important basis functions are
    #  listed first).
    #
    #  Constructed for dimers: 1.85 A, 2.15 A, 2.50 A, 3.00 A, 4.00 A
    #
    ################################################################################
    #  "First tier" - improvements: -336.21 meV to -36.85 meV
         hydro 3 d 4.3
         hydro 2 p 1.6
         hydro 4 f 7.2
         ionic 4 s auto
    #  "Second tier" - improvements: -14.39 meV to -1.49 meV
    #     hydro 5 g 10.4
    #     hydro 4 p 4.5
    #     hydro 4 d 6.2
    #     hydro 4 f 11.2
    #     hydro 1 s 0.65
    #     hydro 6 h 15.2
    #  "Third tier" - improvements: -0.46 meV and below
    #     hydro 5 g 14.4
    #     ionic 4 d auto
    #     hydro 4 f 22.4
    #     hydro 5 f 7.4
    #     hydro 5 p 8
    #     hydro 5 s 9.4
    #  "Fourth tier" - improvements: -0.12 meV and below
    #     hydro 5 d 11.6
    #     hydro 6 h 18
    #     hydro 4 p 4
    #     hydro 5 f 16
    #     hydro 4 s 3.9
  
  
    ################################################################################
    #
    #  FHI-aims code project
    #  Volker Blum, 2018
    #
    #  Suggested "intermediate" defaults for S atom (to be pasted into control.in file)
    #
    ################################################################################
      species        S
    #     global species definitions
        nucleus             16
        mass                32.065
    #
        l_hartree           6
    #
        cut_pot             4.0          2.0  1.0
        basis_dep_cutoff    1e-4
    #
        radial_base         44 7.0
        radial_multiplier   2
        angular_grids       specified
          division   0.4665  110
          division   0.5810  194
          division   0.7139  302
          division   0.8274  434
    #      division   0.9105  590
    #      division   1.0975  770
    #      division   1.2028  974
    #      outer_grid  974
          outer_grid  434
    ################################################################################
    #
    #  Definition of "minimal" basis
    #
    ################################################################################
    #     valence basis states
        valence      3  s   2.
        valence      3  p   4.
    #     ion occupancy
        ion_occ      3  s   1.
        ion_occ      3  p   3.
    ################################################################################
    #
    #  Suggested additional basis functions. For production calculations,
    #  uncomment them one after another (the most important basis functions are
    #  listed first).
    #
    #  Constructed for dimers: 1.6 A, 1.9 A, 2.5 A, 3.25 A, 4.0 A
    #
    ################################################################################
    #  "First tier" - improvements: -652.81 meV to -45.53 meV
         ionic 3 d auto
         hydro 2 p 1.8
         hydro 4 f 7
         ionic 3 s auto
    #  "Second tier" - improvements: -30.20 meV to -1.74 meV
    #     hydro 4 d 6.2
    for_aux     hydro 5 g 10.8
    #     hydro 4 p 4.9
    #     hydro 5 f 10
    #     hydro 1 s 0.8
    #  "Third tier" - improvements: -1.04 meV to -0.20 meV
    #     hydro 3 d 3.9
    #     hydro 3 d 2.7
    #     hydro 5 g 12
    #     hydro 4 p 10.4
    #     hydro 5 f 12.4
    #     hydro 2 s 1.9
    #  "Fourth tier" - improvements: -0.35 meV to -0.06 meV
    #     hydro 4 d 10.4
    #     hydro 4 p 7.2
    #     hydro 4 d 10
    #     hydro 5 g 19.2
    #     hydro 4 s 12
  
    ################################################################################
    #
    #  FHI-aims code project
    # Volker Blum, Fritz Haber Institute Berlin, 2009
    #
    #  Suggested "intermediate" defaults for Mo atom (to be pasted into control.in file)
    #
    #  See https://aaltodoc.aalto.fi/handle/123456789/33620 for the report these
    #  setting are based on
    ################################################################################
      species        Mo
    #     global species definitions
        nucleus             42
        mass                95.94
    #
        l_hartree           6
    #
        cut_pot             4.0  2.0  1.0
        basis_dep_cutoff    1e-4
    #
        radial_base         59 7.0
        radial_multiplier   2
        angular_grids specified
          division   0.3117   50
          division   0.6750  110
          division   1.0351  194
          division   1.2073  302
          division   1.6402  434
    #      division   1.9185  590
    #      division   2.0237  770
    #      division   2.0980  974
    #      division   2.7972 1202
    #      outer_grid  974
          outer_grid  434
    ################################################################################
    #
    #  Definition of "minimal" basis
    #
    ################################################################################
    #     valence basis states
        valence      5  s   1.
        valence      4  p   6.
        valence      4  d   5.
    #     ion occupancy
        ion_occ     5  s   0.
        ion_occ     4  p   6.
        ion_occ     4  d   4.
    ################################################################################
    #
    #  Suggested additional basis functions. For production calculations,
    #  uncomment them one after another (the most important basis functions are
    #  listed first).
    #
    #  Constructed for dimers: 1.675 A, 1.9 A, 2.375 A, 3.00 A, 4.00 A
    #
    ################################################################################
    #  "First tier"  - max. impr. -711.23  meV, min. impr. -21.07 meV
         hydro 4 f 8.4
         hydro 3 d 2.8
         ionic 5 p auto
         for_aux hydro 5 g 12
         ionic 5 s auto
    #  "Second tier" - max. impr. -39.38  meV, min. impr. -2.68 meV
    #     hydro 4 f 12.4
    #     hydro 3 d 3.3
    #     hydro 6 h 17.2
    #     hydro 4 f 7.6
    #     hydro 3 p 3.0
    #     hydro 1 s 0.65
    #  "Third tier"  - max. impr. -5.50 meV, min. impr. -0.47 meV
    #     hydro 4 f 29.2
    #     hydro 5 g 11.2
    #     hydro 3 d 6.8
    #     hydro 6 h 14.8
    #     hydro 2 p 2.3
    #     hydro 4 s 3.8
    #  "Fourth tier"  - max. impr. -0.58 meV, min. impr. -0.19 meV
    #     hydro 5 f 6.8
    #     hydro 5 d 14.8
    #     hydro 6 s 7.8
    #     hydro 5 g 20.8
    #     hydro 5 d 10.4
    #     hydro 5 p 9.8
    #  Further functions - -0.17 meV and below
    #     hydro 5 d 3.2
    ################################################################################
    #
    #  FHI-aims code project
    #  Volker Blum, Maria Dragoumi, Sebastian Kokott 2020
    #
    #  Suggested "intermediate" defaults for W atom (to be pasted into control.in file)
    #
    ################################################################################
      species          W
    #     global species definitions
        nucleus        74
        mass           183.84
    #
        l_hartree      6
    #
        cut_pot        4.0  2.0  1.0
        basis_dep_cutoff    1e-4
    #
        radial_base    71  7.0
        radial_multiplier  2
        angular_grids specified
          division   0.2901   50
          division   0.6986  110
          division   1.0528  194
          division   1.2659  302
          division   1.5223  434
    #      division   1.8111  590
    #      division   2.0105  770
    #      division   2.0413  974
    #      division   2.8804 1202
    #      outer_grid  974
          outer_grid  434
    ################################################################################
    #
    #  Definition of "minimal" basis
    #
    ################################################################################
    #     valence basis states
        valence      6  s   2.
        valence      5  p   6.
        valence      5  d   4.
        valence      4  f  14.
    #     ion occupancy
        ion_occ      6  s   1.
        ion_occ      5  p   6.
        ion_occ      5  d   3.
        ion_occ      4  f  14.
    ################################################################################
    #
    #  Suggested additional basis functions. For production calculations,
    #  uncomment them one after another (the most important basis functions are
    #  listed first).
    #
    #  Constructed for dimers: 1.775, 1.99, 2.50, 3.25, 4.50 AA
    #
    ################################################################################
    #
    #  "First tier" - improvements: -603.77 meV to -28.99 meV
         hydro 4 f 7.8
         hydro 4 d 5.8
         ionic 6 p auto
      for_aux   hydro 5 g 12.4
         ionic 6 s auto
    #  "Second tier" - improvements: -28.30 meV to -1.31 meV
    #     hydro 6 h 16.8
    #     ionic 5 d auto
    #     hydro 4 f 8.6
    #     hydro 5 g 16.8
    #     hydro 5 d 8.4
    #     hydro 3 p 3.3
    #     hydro 1 s 0.55
    #  "Third tier" - max. impr. -1.79 meV, min. impr. -0.26 meV
    #     hydro 5 f 10.8
    #     hydro 5 g 34.4
    #     hydro 6 h 20.8
    #     hydro 5 g 12.8
    #     hydro 2 p 1.6
    #     hydro 4 s 4.7
    #     hydro 6 d 18.4
    #  "Fourth tier" -0.46 max. impr. - meV, min. impr. -0.09 meV
    #     hydro 6 h 21.6
    #     hydro 5 f 22.4
    #     hydro 4 f 4
    #     hydro 5 p 9.6
    #     hydro 6 d 17.2
    #     hydro 3 p 5.2
    #     hydro 5 g 4.7
    #     hydro 6 s 7.6
  ################################################################################
  #
  #  FHI-aims code project
  #  Volker Blum, 2017
  #
  #  Suggested "intermediate" defaults for N atom (to be pasted into control.in file)
  #
  ################################################################################
    species        N
  #     global species definitions
      nucleus             7
      mass                14.0067
  #
      l_hartree           6
  #
      cut_pot             4.0  2.0  1.0
      basis_dep_cutoff    1e-4
  #
      radial_base         35 7.0
      radial_multiplier   2
      angular_grids       specified
        division   0.1841   50
        division   0.3514  110
        division   0.5126  194
        division   0.6292  302
        division   0.6939  434
  #      division   0.7396  590
  #      division   0.7632  770
  #      division   0.8122  974
  #      division   1.1604 1202
  #      outer_grid  974
        outer_grid  434
  ################################################################################
  #
  #  Definition of "minimal" basis
  #
  ################################################################################
  #     valence basis states
      valence      2  s   2.
      valence      2  p   3.
  #     ion occupancy
      ion_occ      2  s   1.
      ion_occ      2  p   2.
  ################################################################################
  #
  #  Suggested additional basis functions. For production calculations,
  #  uncomment them one after another (the most important basis functions are
  #  listed first).
  #
  #  Constructed for dimers: 1.0 A, 1.1 A, 1.5 A, 2.0 A, 3.0 A
  #
  ################################################################################
  #  "First tier" - improvements: -1193.42 meV to -220.60 meV
       hydro 2 p 1.8
       hydro 3 d 6.8
       hydro 3 s 5.8
  #  "Second tier" - improvements: -80.21 meV to -6.86 meV
       hydro 4 f 10.8
  #     hydro 3 p 5.8
  #     hydro 1 s 0.8
    for_aux    hydro 5 g 16
  #     hydro 3 d 4.9
  #  "Third tier" - improvements: -4.29 meV to -0.53 meV
  #     hydro 3 s 16
  #     ionic 2 p auto
  #     hydro 3 d 6.6
  #     hydro 4 f 11.6
  #  "Fourth tier" - improvements: -0.75 meV to -0.25 meV
  #     hydro 2 p 4.5
  #     hydro 2 s 2.4
  #     hydro 5 g 14.4
  #     hydro 4 d 14.4
  #     hydro 4 f 16.8
  # Further basis functions - -0.21 meV and below
  #     hydro 3 p 14.8
  #     hydro 3 s 4.4
  #     hydro 3 d 19.6
  #     hydro 5 g 12.8
  ################################################################################
  #
  #  FHI-aims code project
  #  Volker Blum, 2020
  #
  #  Suggested "intermediate" defaults for Ne atom (to be pasted into control.in file)
  #
  ################################################################################
    species        Ne
  #     global species definitions
      nucleus             9.96
      mass                20.1797
  #
      l_hartree           6
  #
      cut_pot             4.0  2.0  1.0
      basis_dep_cutoff    1e-4
  #
      radial_base         38 7.0
      radial_multiplier   2
      angular_grids specified
        division   0.4737  110
        division   0.6363  194
        division   0.7448  302
  #      division   0.8348  590
  #      division   1.0034  770
  #      division   1.7611  974
  #      outer_grid   974
        outer_grid  434
  ################################################################################
  #
  #  Definition of "minimal" basis
  #
  ################################################################################
  #     valence basis states
      valence      2  s   1.96
      valence      2  p   6.
  #     ion occupancy
      ion_occ      2  s   1.0
      ion_occ      2  p   4.96
  ################################################################################
  #
  #  Suggested additional basis functions. For production calculations,
  #  uncomment them one after another (the most important basis functions are
  #  listed first).
  #
  #  Constructed for dimers: 1.5 A, 1.75 A, 2.25 A, 2.625 A, 3.0 A, 3.5 A
  #
  #  Noble gas symmetric dimers converge quickly in DFT. If you find that
  #  you require a larger basis than tier 3, please contact us - VB, FHI.
  #
  ################################################################################
  #  "First tier" - improvements: -20.90 meV to -4.46 meV
       hydro 3 d 6
       hydro 2 p 1.5
       hydro 3 s 7.6
  #  "Second tier" - improvements: -2.26 meV to -0.22 meV
       hydro 4 f 9.4
  #     ionic 3 d auto
  #     ionic 3 s auto
    for_aux   hydro 5 g 13.6
  #     hydro 3 p 6
  #  "Third tier" - improvements: -0.21 meV and below
  #     hydro 2 s 8.6
  #     hydro 4 d 12
  #     hydro 4 d 7.6
  #     hydro 3 p 2.3
  
  ################################################################################
  #
  # For methods that use the localized form of the "resolution of identity" for
  # the two-electron Coulomb operator (RI_method LVL), particularly Hartree-Fock and
  # hybrid density functional calculations, the highest accuracy can be obtained by
  # uncommenting the line beginning with "for_aux"  below, thus adding an extra g radial
  # function to the construction of the product basis set for the expansion.
  # See Ref. New J. Phys. 17, 093020 (2015) for more information, particularly Figs. 1 and 6.
  #
  ################################################################################
  #
  # for_aux hydro 5 g 6.0
  
  -----------------------------------------------------------------------
  Completed first pass over input file control.in .
  -----------------------------------------------------------------------
  
  
  -----------------------------------------------------------------------
  Parsing geometry.in (first pass over file, find array dimensions only).
  The contents of geometry.in will be repeated verbatim below
  unless switched off by setting 'verbatim_writeout .false.' .
  in the first line of geometry.in .
  -----------------------------------------------------------------------
  
  #=======================================================
  # FHI-aims file: geometry_mos2.in
  # Created using the Atomic Simulation Environment (ASE)
  # Tue Oct 11 14:52:16 2022
  #=======================================================
  lattice_vector 15.6668154000000008 -0.0013032000000000 0.0000000000000000
  lattice_vector -7.8344129500000008 13.5670000000000002 0.0000000000000000
  lattice_vector 0.0000000000000000 0.0000000000000000 103.0909873699999935
  atom 7.0490399900000007 13.1135743800000011 51.5454936199999949 Mo
  atom 0.7833348700000000 0.4521344400000000 53.0909873700000006 S
  atom 0.7833348600000000 0.4521344400000000 50.0000000000000000 S
  atom 13.3165703500000010 2.2599743800000001 51.5454936199999949 Mo
  atom -0.7835477200000002 3.1655344400000001 53.0909873700000006 S
  atom -0.7835477300000002 3.1655344400000001 50.0000000000000000 S
  atom 11.7496877600000023 4.9733743800000001 51.5454936199999949 Mo
  atom -2.3504303100000006 5.8789344400000001 53.0909873700000006 S
  atom -2.3504303200000005 5.8789344400000001 50.0000000000000000 S
  atom 10.1828051700000000 7.6867743800000010 51.5454936199999949 Mo
  atom -3.9173129000000011 8.5923344400000019 53.0909873700000006 S
  atom -3.9173129100000015 8.5923344400000019 50.0000000000000000 S
  atom 8.6159225799999994 10.4001743799999993 51.5454936199999949 Mo
  atom -5.4841954900000012 11.3057344400000002 53.0909873700000006 S
  atom -5.4841955000000011 11.3057344400000002 50.0000000000000000 S
  atom -5.4844123300000005 13.1146169399999994 51.5454936199999949 Mo
  atom 3.9166979500000010 0.4518738000000000 53.0909873700000006 S
  atom 3.9166979400000019 0.4518738000000000 50.0000000000000000 S
  atom 0.7831180300000000 2.2610169400000002 51.5454936199999949 Mo
  atom 2.3498153600000000 3.1652738000000000 53.0909873700000006 S
  atom 2.3498153500000005 3.1652738000000000 50.0000000000000000 S
  atom -0.7837645599999998 4.9744169399999993 51.5454936199999949 Mo
  atom 0.7829327700000003 5.8786738000000005 53.0909873700000006 S
  atom 0.7829327600000013 5.8786738000000005 50.0000000000000000 S
  atom -2.3506471499999999 7.6878169400000012 51.5454936199999949 Mo
  atom -0.7839498199999999 8.5920738000000014 53.0909873700000006 S
  atom -0.7839498300000003 8.5920738000000014 50.0000000000000000 S
  atom -3.9175297400000009 10.4012169400000012 51.5454936199999949 Mo
  atom -2.3508324100000006 11.3054738000000015 53.0909873700000006 S
  atom -2.3508324200000001 11.3054738000000015 50.0000000000000000 S
  atom -2.3510492500000000 13.1143563000000007 51.5454936199999949 Mo
  atom 7.0500610300000028 0.4516131600000000 53.0909873700000006 S
  atom 7.0500610200000011 0.4516131600000000 50.0000000000000000 S
  atom 3.9164811099999999 2.2607562999999997 51.5454936199999949 Mo
  atom 5.4831784400000014 3.1650131600000000 53.0909873700000006 S
  atom 5.4831784300000006 3.1650131599999995 50.0000000000000000 S
  atom 2.3495985200000007 4.9741562999999998 51.5454936199999949 Mo
  atom 3.9162958500000014 5.8784131600000000 53.0909873700000006 S
  atom 3.9162958400000010 5.8784131600000000 50.0000000000000000 S
  atom 0.7827159300000005 7.6875563000000016 51.5454936199999949 Mo
  atom 2.3494132600000013 8.5918131600000009 53.0909873700000006 S
  atom 2.3494132500000005 8.5918131600000009 50.0000000000000000 S
  atom -0.7841666599999993 10.4009563000000007 51.5454936199999949 Mo
  atom 0.7825306700000008 11.3052131600000010 53.0909873700000006 S
  atom 0.7825306599999996 11.3052131600000010 50.0000000000000000 S
  atom 0.7823138300000013 13.1140956600000003 51.5454936199999949 Mo
  atom 10.1834241100000025 0.4513525200000000 53.0909873700000006 S
  atom 10.1834241000000034 0.4513525200000000 50.0000000000000000 S
  atom 7.0498441900000000 2.2604956600000001 51.5454936199999949 Mo
  atom 8.6165415200000037 3.1647525200000004 53.0909873700000006 S
  atom 8.6165415100000029 3.1647525200000000 50.0000000000000000 S
  atom 5.4829616000000021 4.9738956599999993 51.5454936199999949 Mo
  atom 7.0496589300000032 5.8781525200000004 53.0909873700000006 S
  atom 7.0496589200000033 5.8781525200000004 50.0000000000000000 S
  atom 3.9160790100000002 7.6872956600000002 51.5454936199999949 Mo
  atom 5.4827763400000009 8.5915525200000005 53.0909873700000006 S
  atom 5.4827763300000010 8.5915525200000005 50.0000000000000000 S
  atom 2.3491964200000011 10.4006956600000002 51.5454936199999949 Mo
  atom 3.9158937500000013 11.3049525200000005 53.0909873700000006 S
  atom 3.9158937400000009 11.3049525200000005 50.0000000000000000 S
  atom 3.9156769100000020 13.1138350199999998 51.5454936199999949 Mo
  atom 13.3167871900000030 0.4510918800000000 53.0909873700000006 S
  atom 13.3167871800000039 0.4510918800000001 50.0000000000000000 S
  atom 10.1832072700000023 2.2602350200000005 51.5454936199999949 Mo
  atom 11.7499046000000007 3.1644918799999999 53.0909873700000006 S
  atom 11.7499045900000034 3.1644918799999999 50.0000000000000000 S
  atom 8.6163246800000017 4.9736350199999997 51.5454936199999949 Mo
  atom 10.1830220100000020 5.8778918800000000 53.0909873700000006 S
  atom 10.1830220000000029 5.8778918800000000 50.0000000000000000 S
  atom 7.0494420899999994 7.6870350200000015 51.5454936199999949 Mo
  atom 8.6161394200000014 8.5912918800000018 53.0909873700000006 S
  atom 8.6161394100000024 8.5912918800000018 50.0000000000000000 S
  atom 5.4825595000000007 10.4004350199999998 51.5454936199999949 Mo
  atom 7.0492568300000018 11.3046918800000000 53.0909873700000006 S
  atom 7.0492568200000036 11.3046918800000000 50.0000000000000000 S
  atom 0.0000000000000000 0.0000000000000000  47.2888599   Ne
  atom 3.1317759338752200 0.0000000000000000  47.2888599   Ne
  atom 6.2635518677504400 0.0000000000000000  47.2888599   Ne
  atom 9.3953278016256601 0.0000000000000000  47.2888599   Ne
  atom 12.5271037355008801 0.0000000000000000 47.2888599   Ne
  atom 1.5658879669376100 2.7121975176966737  47.2888599   Ne
  atom 4.6976639008128300 2.7121975176966737  47.2888599   Ne
  atom 7.8294398346880500 2.7121975176966737  47.2888599   Ne
  atom 10.9612157685632710 2.7121975176966737 47.2888599   Ne
  atom 14.0929917024384892 2.7121975176966737 47.2888599   Ne
  atom 3.1317759338752200 5.4243950353933474  47.2888599   Ne
  atom 6.2635518677504400 5.4243950353933474  47.2888599   Ne
  atom 9.3953278016256601 5.4243950353933474  47.2888599   Ne
  atom 12.5271037355008801 5.4243950353933474 47.2888599   Ne
  atom 15.6588796693761001 5.4243950353933474 47.2888599   Ne
  atom 4.6976639008128300 8.1365925530900221  47.2888599   Ne
  atom 7.8294398346880500 8.1365925530900221  47.2888599   Ne
  atom 10.9612157685632710 8.1365925530900221 47.2888599   Ne
  atom 14.0929917024384892 8.1365925530900221 47.2888599   Ne
  atom 17.2247676363137110 8.1365925530900221 47.2888599   Ne
  atom 6.2635518677504400 10.8487900707866949 47.2888599   Ne
  atom 9.3953278016256601 10.8487900707866949 47.2888599   Ne
  atom 12.5271037355008801 10.848790070786694 47.2888599   Ne
  atom 15.6588796693761001 10.848790070786694 47.2888599   Ne
  atom 18.7906556032513201 10.848790070786694 47.2888599   Ne
  
  -----------------------------------------------------------------------
  Completed first pass over input file geometry.in .
  -----------------------------------------------------------------------
  

  Basic array size parameters:
  | Number of species                 :        6
  | Number of atoms                   :      100
  | Number of lattice vectors         :        3
  | Max. basis fn. angular momentum   :        4
  | Max. atomic/ionic basis occupied n:        6
  | Max. number of basis fn. types    :        3
  | Max. radial fns per species/type  :       14
  | Max. logarithmic grid size        :     1483
  | Max. radial integration grid size :      143
  | Max. angular integration grid size:      434
  | Max. angular grid division number :        8
  | Radial grid for Hartree potential :     1483
  | Number of spin channels           :        1

------------------------------------------------------------
          Reading file control.in.
------------------------------------------------------------

  XC: Using HSE-functional with OMEGA =  0.110000E+00 <units>.
  XC: For the actual units (bohr^-1 or Angstrom^-1), see below.
  hse_unit: Unit for the HSE06 hybrid functional screening parameter set to bohr^(-1).
  Spin treatment: No spin polarisation.
  Charge =   0.000000E+00: Neutral system requested explicitly.
  Scalar relativistic treatment of kinetic energy: on-site free-atom approximation to ZORA.
  Occupation type: Gaussian broadening, width =   0.100000E+00 eV.
  Found k-point grid:         4         4         1
  Using dipole correction.
  Using libMBD for calculating MBD and TS energies
 
  Reading configuration options for species Se                  .
  | Found nuclear charge :  34.0000
  | Found atomic mass :    78.9600000000000      amu
  | Found l_max for Hartree potential  :   6
  | Found cutoff potl. onset [A], width [A], scale factor :    4.00000    2.00000    1.00000
  | Threshold for basis-dependent cutoff potential is   0.100000E-03
  | Found data for basic radial integration grid :    55 points, outermost radius =    7.000 A
  | Found multiplier for basic radial grid :   2
  | Found angular grid specification: user-specified.
  | Specified grid contains     5 separate shells.
  | Check grid settings after all constraints further below.
  | Found free-atom valence shell :  4 s   2.000
  | Found free-atom valence shell :  4 p   4.000
  | Found free-atom valence shell :  3 d  10.000
  | Found free-ion valence shell :  4 s   1.000
  | Found free-ion valence shell :  4 p   3.000
  | Found free-ion valence shell :  3 d  10.000
  | Found hydrogenic basis function :  3 d   4.300
  | Found hydrogenic basis function :  2 p   1.600
  | Found hydrogenic basis function :  4 f   7.200
  | Found ionic basis function :  4 s , default cutoff radius.
  Species Se                  : Missing cutoff potential type.
  Defaulting to exp(1/x)/(1-x)^2 type cutoff potential.
  Species Se: No 'logarithmic' tag. Using default grid for free atom:
  | Default logarithmic grid data [bohr] : 0.1000E-03 0.1000E+03 0.1012E+01
  | Will include ionic basis functions of  2.0-fold positive Se                   ion.
  Species Se: On-site basis accuracy parameter (for Gram-Schmidt orthonormalisation) not specified.
  Using default value basis_acc =  0.1000000E-03.
  Species Se                  : Using default innermost maximum threshold i_radial=  2 for radial functions.
  Species Se                  : Default cutoff onset for free atom density etc. : 0.40000000E+01 AA.
  Species Se                  : Basic radial grid will be enhanced according to radial_multiplier =   2, to contain   111 grid points.
 
  Reading configuration options for species S                   .
  | Found nuclear charge :  16.0000
  | Found atomic mass :    32.0650000000000      amu
  | Found l_max for Hartree potential  :   6
  | Found cutoff potl. onset [A], width [A], scale factor :    4.00000    2.00000    1.00000
  | Threshold for basis-dependent cutoff potential is   0.100000E-03
  | Found data for basic radial integration grid :    44 points, outermost radius =    7.000 A
  | Found multiplier for basic radial grid :   2
  | Found angular grid specification: user-specified.
  | Specified grid contains     5 separate shells.
  | Check grid settings after all constraints further below.
  | Found free-atom valence shell :  3 s   2.000
  | Found free-atom valence shell :  3 p   4.000
  | Found free-ion valence shell :  3 s   1.000
  | Found free-ion valence shell :  3 p   3.000
  | Found ionic basis function :  3 d , default cutoff radius.
  | Found hydrogenic basis function :  2 p   1.800
  | Found hydrogenic basis function :  4 f   7.000
  | Found ionic basis function :  3 s , default cutoff radius.
  | Found hydrogenic extended basis function :  5 g  10.800
  Species S                   : Missing cutoff potential type.
  Defaulting to exp(1/x)/(1-x)^2 type cutoff potential.
  Species S : No 'logarithmic' tag. Using default grid for free atom:
  | Default logarithmic grid data [bohr] : 0.1000E-03 0.1000E+03 0.1012E+01
  | Will include ionic basis functions of  2.0-fold positive S                    ion.
  Species S : On-site basis accuracy parameter (for Gram-Schmidt orthonormalisation) not specified.
  Using default value basis_acc =  0.1000000E-03.
  Species S                   : Using default innermost maximum threshold i_radial=  2 for radial functions.
  Species S                   : Default cutoff onset for free atom density etc. : 0.40000000E+01 AA.
  Species S                   : Basic radial grid will be enhanced according to radial_multiplier =   2, to contain    89 grid points.
 
  Reading configuration options for species Mo                  .
  | Found nuclear charge :  42.0000
  | Found atomic mass :    95.9400000000000      amu
  | Found l_max for Hartree potential  :   6
  | Found cutoff potl. onset [A], width [A], scale factor :    4.00000    2.00000    1.00000
  | Threshold for basis-dependent cutoff potential is   0.100000E-03
  | Found data for basic radial integration grid :    59 points, outermost radius =    7.000 A
  | Found multiplier for basic radial grid :   2
  | Found angular grid specification: user-specified.
  | Specified grid contains     6 separate shells.
  | Check grid settings after all constraints further below.
  | Found free-atom valence shell :  5 s   1.000
  | Found free-atom valence shell :  4 p   6.000
  | Found free-atom valence shell :  4 d   5.000
  | Found free-ion valence shell :  5 s   0.000
  | Found free-ion valence shell :  4 p   6.000
  | Found free-ion valence shell :  4 d   4.000
  | Found hydrogenic basis function :  4 f   8.400
  | Found hydrogenic basis function :  3 d   2.800
  | Found ionic basis function :  5 p , default cutoff radius.
  | Found hydrogenic extended basis function :  5 g  12.000
  | Found ionic basis function :  5 s , default cutoff radius.
  Species Mo                  : Missing cutoff potential type.
  Defaulting to exp(1/x)/(1-x)^2 type cutoff potential.
  Species Mo: No 'logarithmic' tag. Using default grid for free atom:
  | Default logarithmic grid data [bohr] : 0.1000E-03 0.1000E+03 0.1012E+01
  | Will include ionic basis functions of  2.0-fold positive Mo                   ion.
  Species Mo: On-site basis accuracy parameter (for Gram-Schmidt orthonormalisation) not specified.
  Using default value basis_acc =  0.1000000E-03.
  Species Mo                  : Using default innermost maximum threshold i_radial=  2 for radial functions.
  Species Mo                  : Default cutoff onset for free atom density etc. : 0.40000000E+01 AA.
  Species Mo                  : Basic radial grid will be enhanced according to radial_multiplier =   2, to contain   119 grid points.
 
  Reading configuration options for species W                   .
  | Found nuclear charge :  74.0000
  | Found atomic mass :    183.840000000000      amu
  | Found l_max for Hartree potential  :   6
  | Found cutoff potl. onset [A], width [A], scale factor :    4.00000    2.00000    1.00000
  | Threshold for basis-dependent cutoff potential is   0.100000E-03
  | Found data for basic radial integration grid :    71 points, outermost radius =    7.000 A
  | Found multiplier for basic radial grid :   2
  | Found angular grid specification: user-specified.
  | Specified grid contains     6 separate shells.
  | Check grid settings after all constraints further below.
  | Found free-atom valence shell :  6 s   2.000
  | Found free-atom valence shell :  5 p   6.000
  | Found free-atom valence shell :  5 d   4.000
  | Found free-atom valence shell :  4 f  14.000
  | Found free-ion valence shell :  6 s   1.000
  | Found free-ion valence shell :  5 p   6.000
  | Found free-ion valence shell :  5 d   3.000
  | Found free-ion valence shell :  4 f  14.000
  | Found hydrogenic basis function :  4 f   7.800
  | Found hydrogenic basis function :  4 d   5.800
  | Found ionic basis function :  6 p , default cutoff radius.
  | Found hydrogenic extended basis function :  5 g  12.400
  | Found ionic basis function :  6 s , default cutoff radius.
  Species W                   : Missing cutoff potential type.
  Defaulting to exp(1/x)/(1-x)^2 type cutoff potential.
  Species W : No 'logarithmic' tag. Using default grid for free atom:
  | Default logarithmic grid data [bohr] : 0.1000E-03 0.1000E+03 0.1012E+01
  | Will include ionic basis functions of  2.0-fold positive W                    ion.
  Species W : On-site basis accuracy parameter (for Gram-Schmidt orthonormalisation) not specified.
  Using default value basis_acc =  0.1000000E-03.
  Species W                   : Using default innermost maximum threshold i_radial=  2 for radial functions.
  Species W                   : Default cutoff onset for free atom density etc. : 0.40000000E+01 AA.
  Species W                   : Basic radial grid will be enhanced according to radial_multiplier =   2, to contain   143 grid points.
 
  Reading configuration options for species N                   .
  | Found nuclear charge :   7.0000
  | Found atomic mass :    14.0067000000000      amu
  | Found l_max for Hartree potential  :   6
  | Found cutoff potl. onset [A], width [A], scale factor :    4.00000    2.00000    1.00000
  | Threshold for basis-dependent cutoff potential is   0.100000E-03
  | Found data for basic radial integration grid :    35 points, outermost radius =    7.000 A
  | Found multiplier for basic radial grid :   2
  | Found angular grid specification: user-specified.
  | Specified grid contains     6 separate shells.
  | Check grid settings after all constraints further below.
  | Found free-atom valence shell :  2 s   2.000
  | Found free-atom valence shell :  2 p   3.000
  | Found free-ion valence shell :  2 s   1.000
  | Found free-ion valence shell :  2 p   2.000
  | Found hydrogenic basis function :  2 p   1.800
  | Found hydrogenic basis function :  3 d   6.800
  | Found hydrogenic basis function :  3 s   5.800
  | Found hydrogenic basis function :  4 f  10.800
  | Found hydrogenic extended basis function :  5 g  16.000
  Species N                   : Missing cutoff potential type.
  Defaulting to exp(1/x)/(1-x)^2 type cutoff potential.
  Species N : No 'logarithmic' tag. Using default grid for free atom:
  | Default logarithmic grid data [bohr] : 0.1000E-03 0.1000E+03 0.1012E+01
  Species N : On-site basis accuracy parameter (for Gram-Schmidt orthonormalisation) not specified.
  Using default value basis_acc =  0.1000000E-03.
  Species N                   : Using default innermost maximum threshold i_radial=  2 for radial functions.
  Species N                   : Default cutoff onset for free atom density etc. : 0.40000000E+01 AA.
  Species N                   : Basic radial grid will be enhanced according to radial_multiplier =   2, to contain    71 grid points.
 
  Reading configuration options for species Ne                  .
  | Found nuclear charge :   9.9600
  | Found atomic mass :    20.1797000000000      amu
  | Found l_max for Hartree potential  :   6
  | Found cutoff potl. onset [A], width [A], scale factor :    4.00000    2.00000    1.00000
  | Threshold for basis-dependent cutoff potential is   0.100000E-03
  | Found data for basic radial integration grid :    38 points, outermost radius =    7.000 A
  | Found multiplier for basic radial grid :   2
  | Found angular grid specification: user-specified.
  | Specified grid contains     4 separate shells.
  | Check grid settings after all constraints further below.
  | Found free-atom valence shell :  2 s   1.960
  | Found free-atom valence shell :  2 p   6.000
  | Found free-ion valence shell :  2 s   1.000
  | Found free-ion valence shell :  2 p   4.960
  | Found hydrogenic basis function :  3 d   6.000
  | Found hydrogenic basis function :  2 p   1.500
  | Found hydrogenic basis function :  3 s   7.600
  | Found hydrogenic basis function :  4 f   9.400
  | Found hydrogenic extended basis function :  5 g  13.600
  Species Ne                  : Missing cutoff potential type.
  Defaulting to exp(1/x)/(1-x)^2 type cutoff potential.
  Species Ne: No 'logarithmic' tag. Using default grid for free atom:
  | Default logarithmic grid data [bohr] : 0.1000E-03 0.1000E+03 0.1012E+01
  Species Ne: On-site basis accuracy parameter (for Gram-Schmidt orthonormalisation) not specified.
  Using default value basis_acc =  0.1000000E-03.
  Species Ne                  : Using default innermost maximum threshold i_radial=  2 for radial functions.
  Species Ne                  : Default cutoff onset for free atom density etc. : 0.40000000E+01 AA.
  Species Ne                  : Basic radial grid will be enhanced according to radial_multiplier =   2, to contain    77 grid points.
 
  Finished reading input file 'control.in'.
 
------------------------------------------------------------


------------------------------------------------------------
          Reading geometry description geometry.in.
------------------------------------------------------------
  | The smallest distance between any two atoms is         2.37920291 AA.
  | The first atom of this pair is atom number                     13 .
  | The second atom of this pair is atom number                    72 .
  | Wigner-Seitz cell of the first atom image           0     0     0 .
  | (The Wigner-Seitz cell of the second atom is 0 0 0  by definition.)

  Symmetry information by spglib:
  | Precision set to  0.1E-04
  | Number of Operations  : 1
  | Space group           : 1
  | International         : P1
  | Schoenflies           : C1^1
  Input structure read successfully.
  The structure contains      100 atoms,  and a total of       2099.000 electrons.

  Input geometry:
  | Unit cell:
  |       15.66681540       -0.00130320        0.00000000
  |       -7.83441295       13.56700000        0.00000000
  |        0.00000000        0.00000000      103.09098737
  | Atomic structure:
  |       Atom                x [A]            y [A]            z [A]
  |    1: Species Mo            7.04903999       13.11357438       51.54549362
  |    2: Species S             0.78333487        0.45213444       53.09098737
  |    3: Species S             0.78333486        0.45213444       50.00000000
  |    4: Species Mo           13.31657035        2.25997438       51.54549362
  |    5: Species S            -0.78354772        3.16553444       53.09098737
  |    6: Species S            -0.78354773        3.16553444       50.00000000
  |    7: Species Mo           11.74968776        4.97337438       51.54549362
  |    8: Species S            -2.35043031        5.87893444       53.09098737
  |    9: Species S            -2.35043032        5.87893444       50.00000000
  |   10: Species Mo           10.18280517        7.68677438       51.54549362
  |   11: Species S            -3.91731290        8.59233444       53.09098737
  |   12: Species S            -3.91731291        8.59233444       50.00000000
  |   13: Species Mo            8.61592258       10.40017438       51.54549362
  |   14: Species S            -5.48419549       11.30573444       53.09098737
  |   15: Species S            -5.48419550       11.30573444       50.00000000
  |   16: Species Mo           -5.48441233       13.11461694       51.54549362
  |   17: Species S             3.91669795        0.45187380       53.09098737
  |   18: Species S             3.91669794        0.45187380       50.00000000
  |   19: Species Mo            0.78311803        2.26101694       51.54549362
  |   20: Species S             2.34981536        3.16527380       53.09098737
  |   21: Species S             2.34981535        3.16527380       50.00000000
  |   22: Species Mo           -0.78376456        4.97441694       51.54549362
  |   23: Species S             0.78293277        5.87867380       53.09098737
  |   24: Species S             0.78293276        5.87867380       50.00000000
  |   25: Species Mo           -2.35064715        7.68781694       51.54549362
  |   26: Species S            -0.78394982        8.59207380       53.09098737
  |   27: Species S            -0.78394983        8.59207380       50.00000000
  |   28: Species Mo           -3.91752974       10.40121694       51.54549362
  |   29: Species S            -2.35083241       11.30547380       53.09098737
  |   30: Species S            -2.35083242       11.30547380       50.00000000
  |   31: Species Mo           -2.35104925       13.11435630       51.54549362
  |   32: Species S             7.05006103        0.45161316       53.09098737
  |   33: Species S             7.05006102        0.45161316       50.00000000
  |   34: Species Mo            3.91648111        2.26075630       51.54549362
  |   35: Species S             5.48317844        3.16501316       53.09098737
  |   36: Species S             5.48317843        3.16501316       50.00000000
  |   37: Species Mo            2.34959852        4.97415630       51.54549362
  |   38: Species S             3.91629585        5.87841316       53.09098737
  |   39: Species S             3.91629584        5.87841316       50.00000000
  |   40: Species Mo            0.78271593        7.68755630       51.54549362
  |   41: Species S             2.34941326        8.59181316       53.09098737
  |   42: Species S             2.34941325        8.59181316       50.00000000
  |   43: Species Mo           -0.78416666       10.40095630       51.54549362
  |   44: Species S             0.78253067       11.30521316       53.09098737
  |   45: Species S             0.78253066       11.30521316       50.00000000
  |   46: Species Mo            0.78231383       13.11409566       51.54549362
  |   47: Species S            10.18342411        0.45135252       53.09098737
  |   48: Species S            10.18342410        0.45135252       50.00000000
  |   49: Species Mo            7.04984419        2.26049566       51.54549362
  |   50: Species S             8.61654152        3.16475252       53.09098737
  |   51: Species S             8.61654151        3.16475252       50.00000000
  |   52: Species Mo            5.48296160        4.97389566       51.54549362
  |   53: Species S             7.04965893        5.87815252       53.09098737
  |   54: Species S             7.04965892        5.87815252       50.00000000
  |   55: Species Mo            3.91607901        7.68729566       51.54549362
  |   56: Species S             5.48277634        8.59155252       53.09098737
  |   57: Species S             5.48277633        8.59155252       50.00000000
  |   58: Species Mo            2.34919642       10.40069566       51.54549362
  |   59: Species S             3.91589375       11.30495252       53.09098737
  |   60: Species S             3.91589374       11.30495252       50.00000000
  |   61: Species Mo            3.91567691       13.11383502       51.54549362
  |   62: Species S            13.31678719        0.45109188       53.09098737
  |   63: Species S            13.31678718        0.45109188       50.00000000
  |   64: Species Mo           10.18320727        2.26023502       51.54549362
  |   65: Species S            11.74990460        3.16449188       53.09098737
  |   66: Species S            11.74990459        3.16449188       50.00000000
  |   67: Species Mo            8.61632468        4.97363502       51.54549362
  |   68: Species S            10.18302201        5.87789188       53.09098737
  |   69: Species S            10.18302200        5.87789188       50.00000000
  |   70: Species Mo            7.04944209        7.68703502       51.54549362
  |   71: Species S             8.61613942        8.59129188       53.09098737
  |   72: Species S             8.61613941        8.59129188       50.00000000
  |   73: Species Mo            5.48255950       10.40043502       51.54549362
  |   74: Species S             7.04925683       11.30469188       53.09098737
  |   75: Species S             7.04925682       11.30469188       50.00000000
  |   76: Species Ne            0.00000000        0.00000000       47.28885990
  |   77: Species Ne            3.13177593        0.00000000       47.28885990
  |   78: Species Ne            6.26355187        0.00000000       47.28885990
  |   79: Species Ne            9.39532780        0.00000000       47.28885990
  |   80: Species Ne           12.52710374        0.00000000       47.28885990
  |   81: Species Ne            1.56588797        2.71219752       47.28885990
  |   82: Species Ne            4.69766390        2.71219752       47.28885990
  |   83: Species Ne            7.82943983        2.71219752       47.28885990
  |   84: Species Ne           10.96121577        2.71219752       47.28885990
  |   85: Species Ne           14.09299170        2.71219752       47.28885990
  |   86: Species Ne            3.13177593        5.42439504       47.28885990
  |   87: Species Ne            6.26355187        5.42439504       47.28885990
  |   88: Species Ne            9.39532780        5.42439504       47.28885990
  |   89: Species Ne           12.52710374        5.42439504       47.28885990
  |   90: Species Ne           15.65887967        5.42439504       47.28885990
  |   91: Species Ne            4.69766390        8.13659255       47.28885990
  |   92: Species Ne            7.82943983        8.13659255       47.28885990
  |   93: Species Ne           10.96121577        8.13659255       47.28885990
  |   94: Species Ne           14.09299170        8.13659255       47.28885990
  |   95: Species Ne           17.22476764        8.13659255       47.28885990
  |   96: Species Ne            6.26355187       10.84879007       47.28885990
  |   97: Species Ne            9.39532780       10.84879007       47.28885990
  |   98: Species Ne           12.52710374       10.84879007       47.28885990
  |   99: Species Ne           15.65887967       10.84879007       47.28885990
  |  100: Species Ne           18.79065560       10.84879007       47.28885990

  Lattice parameters for 3D lattice (in Angstroms) :    15.666815   15.666573  103.090987
  Angle(s) between unit vectors (in degrees)       :    90.000000   90.000000  120.009523


  Quantities derived from the lattice vectors (in Angstrom^-1):
  | Reciprocal lattice vector 1:  0.401070  0.231602  0.000000
  | Reciprocal lattice vector 2:  0.000039  0.463145  0.000000
  | Reciprocal lattice vector 3:  0.000000  0.000000  0.060948
  | Unit cell volume                               :   0.219111E+05  Angstrom^3

  Fractional coordinates:
                         L1                L2                L3
       atom_frac         0.93333070        0.96666844        0.50000000  Mo
       atom_frac         0.06666799        0.03333245        0.51499155  S
       atom_frac         0.06666799        0.03333245        0.48500845  S
       atom_frac         0.93333070        0.16666844        0.50000000  Mo
       atom_frac         0.06666799        0.23333245        0.51499155  S
       atom_frac         0.06666799        0.23333245        0.48500845  S
       atom_frac         0.93333070        0.36666844        0.50000000  Mo
       atom_frac         0.06666799        0.43333245        0.51499155  S
       atom_frac         0.06666799        0.43333245        0.48500845  S
       atom_frac         0.93333070        0.56666844        0.50000000  Mo
       atom_frac         0.06666799        0.63333245        0.51499155  S
       atom_frac         0.06666799        0.63333245        0.48500845  S
       atom_frac         0.93333070        0.76666844        0.50000000  Mo
       atom_frac         0.06666799        0.83333245        0.51499155  S
       atom_frac         0.06666799        0.83333245        0.48500845  S
       atom_frac         0.13333070        0.96666844        0.50000000  Mo
       atom_frac         0.26666799        0.03333245        0.51499155  S
       atom_frac         0.26666799        0.03333245        0.48500845  S
       atom_frac         0.13333070        0.16666844        0.50000000  Mo
       atom_frac         0.26666799        0.23333245        0.51499155  S
       atom_frac         0.26666799        0.23333245        0.48500845  S
       atom_frac         0.13333070        0.36666844        0.50000000  Mo
       atom_frac         0.26666799        0.43333245        0.51499155  S
       atom_frac         0.26666799        0.43333245        0.48500845  S
       atom_frac         0.13333070        0.56666844        0.50000000  Mo
       atom_frac         0.26666799        0.63333245        0.51499155  S
       atom_frac         0.26666799        0.63333245        0.48500845  S
       atom_frac         0.13333070        0.76666844        0.50000000  Mo
       atom_frac         0.26666799        0.83333245        0.51499155  S
       atom_frac         0.26666799        0.83333245        0.48500845  S
       atom_frac         0.33333070        0.96666844        0.50000000  Mo
       atom_frac         0.46666799        0.03333245        0.51499155  S
       atom_frac         0.46666799        0.03333245        0.48500845  S
       atom_frac         0.33333070        0.16666844        0.50000000  Mo
       atom_frac         0.46666799        0.23333245        0.51499155  S
       atom_frac         0.46666799        0.23333245        0.48500845  S
       atom_frac         0.33333070        0.36666844        0.50000000  Mo
       atom_frac         0.46666799        0.43333245        0.51499155  S
       atom_frac         0.46666799        0.43333245        0.48500845  S
       atom_frac         0.33333070        0.56666844        0.50000000  Mo
       atom_frac         0.46666799        0.63333245        0.51499155  S
       atom_frac         0.46666799        0.63333245        0.48500845  S
       atom_frac         0.33333070        0.76666844        0.50000000  Mo
       atom_frac         0.46666799        0.83333245        0.51499155  S
       atom_frac         0.46666799        0.83333245        0.48500845  S
       atom_frac         0.53333070        0.96666844        0.50000000  Mo
       atom_frac         0.66666799        0.03333245        0.51499155  S
       atom_frac         0.66666799        0.03333245        0.48500845  S
       atom_frac         0.53333070        0.16666844        0.50000000  Mo
       atom_frac         0.66666799        0.23333245        0.51499155  S
       atom_frac         0.66666799        0.23333245        0.48500845  S
       atom_frac         0.53333070        0.36666844        0.50000000  Mo
       atom_frac         0.66666799        0.43333245        0.51499155  S
       atom_frac         0.66666799        0.43333245        0.48500845  S
       atom_frac         0.53333070        0.56666844        0.50000000  Mo
       atom_frac         0.66666799        0.63333245        0.51499155  S
       atom_frac         0.66666799        0.63333245        0.48500845  S
       atom_frac         0.53333070        0.76666844        0.50000000  Mo
       atom_frac         0.66666799        0.83333245        0.51499155  S
       atom_frac         0.66666799        0.83333245        0.48500845  S
       atom_frac         0.73333070        0.96666844        0.50000000  Mo
       atom_frac         0.86666799        0.03333245        0.51499155  S
       atom_frac         0.86666799        0.03333245        0.48500845  S
       atom_frac         0.73333070        0.16666844        0.50000000  Mo
       atom_frac         0.86666799        0.23333245        0.51499155  S
       atom_frac         0.86666799        0.23333245        0.48500845  S
       atom_frac         0.73333070        0.36666844        0.50000000  Mo
       atom_frac         0.86666799        0.43333245        0.51499155  S
       atom_frac         0.86666799        0.43333245        0.48500845  S
       atom_frac         0.73333070        0.56666844        0.50000000  Mo
       atom_frac         0.86666799        0.63333245        0.51499155  S
       atom_frac         0.86666799        0.63333245        0.48500845  S
       atom_frac         0.73333070        0.76666844        0.50000000  Mo
       atom_frac         0.86666799        0.83333245        0.51499155  S
       atom_frac         0.86666799        0.83333245        0.48500845  S
       atom_frac         0.00000000        0.00000000        0.45870993  Ne
       atom_frac         0.19990830        0.00001920        0.45870993  Ne
       atom_frac         0.39981659        0.00003841        0.45870993  Ne
       atom_frac         0.59972489        0.00005761        0.45870993  Ne
       atom_frac         0.79963319        0.00007681        0.45870993  Ne
       atom_frac         0.19992746        0.19993057        0.45870993  Ne
       atom_frac         0.39983576        0.19994977        0.45870993  Ne
       atom_frac         0.59974405        0.19996898        0.45870993  Ne
       atom_frac         0.79965235        0.19998818        0.45870993  Ne
       atom_frac         0.99956065        0.20000738        0.45870993  Ne
       atom_frac         0.39985492        0.39986114        0.45870993  Ne
       atom_frac         0.59976322        0.39988035        0.45870993  Ne
       atom_frac         0.79967151        0.39989955        0.45870993  Ne
       atom_frac         0.99957981        0.39991875        0.45870993  Ne
       atom_frac         1.19948811        0.39993795        0.45870993  Ne
       atom_frac         0.59978238        0.59979171        0.45870993  Ne
       atom_frac         0.79969068        0.59981092        0.45870993  Ne
       atom_frac         0.99959898        0.59983012        0.45870993  Ne
       atom_frac         1.19950727        0.59984932        0.45870993  Ne
       atom_frac         1.39941557        0.59986852        0.45870993  Ne
       atom_frac         0.79970984        0.79972229        0.45870993  Ne
       atom_frac         0.99961814        0.79974149        0.45870993  Ne
       atom_frac         1.19952644        0.79976069        0.45870993  Ne
       atom_frac         1.39943473        0.79977989        0.45870993  Ne
       atom_frac         1.59934303        0.79979910        0.45870993  Ne

 
  Finished reading input file 'geometry.in'.
 

 
  Consistency checks for stacksize environment parameter are next.
 
  | Maximum stacksize for task 0: unlimited
  | Maximum stacksize for task 1: unlimited
  | Maximum stacksize for task 2: unlimited
  | Maximum stacksize for task 3: unlimited
  | Maximum stacksize for task 4: unlimited
  | Maximum stacksize for task 5: unlimited
  | Maximum stacksize for task 6: unlimited
  | Maximum stacksize for task 7: unlimited
  | Maximum stacksize for task 8: unlimited
  | Maximum stacksize for task 9: unlimited
  | Maximum stacksize for task 10: unlimited
  | Maximum stacksize for task 11: unlimited
  | Maximum stacksize for task 12: unlimited
  | Maximum stacksize for task 13: unlimited
  | Maximum stacksize for task 14: unlimited
  | Maximum stacksize for task 15: unlimited
  | Current stacksize for task 0: unlimited
  | Current stacksize for task 1: unlimited
  | Current stacksize for task 2: unlimited
  | Current stacksize for task 3: unlimited
  | Current stacksize for task 4: unlimited
  | Current stacksize for task 5: unlimited
  | Current stacksize for task 6: unlimited
  | Current stacksize for task 7: unlimited
  | Current stacksize for task 8: unlimited
  | Current stacksize for task 9: unlimited
  | Current stacksize for task 10: unlimited
  | Current stacksize for task 11: unlimited
  | Current stacksize for task 12: unlimited
  | Current stacksize for task 13: unlimited
  | Current stacksize for task 14: unlimited
  | Current stacksize for task 15: unlimited
 
  Consistency checks for the contents of control.in are next.
 
  HSE06 screening parameters: omega_HF  =      0.11000000 bohr^-1, and
                              omega_PBE =      0.11000000 bohr^-1.
  MPI_IN_PLACE appears to work with this MPI implementation.
  | Keeping use_mpi_in_place .true. (see manual).
  Explicit treatment of the Coulomb operator is needed, but the RI method is not specified.
  Coulomb operator: Defaulting to 'LVL fast' resolution of identity - RI_type = LVL_fast
  Species Se: Using default value for prodbas_acc =   1.000000E-04.
  Species Se: Using default value max_l_prodbas =    20.
  Species S: Using default value for prodbas_acc =   1.000000E-04.
  Species S: Using default value max_l_prodbas =    20.
  Species Mo: Using default value for prodbas_acc =   1.000000E-04.
  Species Mo: Using default value max_l_prodbas =    20.
  Species W: Using default value for prodbas_acc =   1.000000E-04.
  Species W: Using default value max_l_prodbas =    20.
  Species N: Using default value for prodbas_acc =   1.000000E-04.
  Species N: Using default value max_l_prodbas =    20.
  Species Ne: Using default value for prodbas_acc =   1.000000E-04.
  Species Ne: Using default value max_l_prodbas =    20.
  Target number of points in a grid batch is not set. Defaulting to  100
  Method for grid partitioning is not set. Defaulting to parallel hash+maxmin partitioning.
  Batch size limit is not set. Defaulting to    200
  By default, will store active basis functions for each batch.
  If in need of memory, prune_basis_once .false. can be used to disable this option.
  communication_type for Hartree potential was not specified.
  Defaulting to calc_hartree .
  Defaulting to Pulay charge density mixer.
  Pulay mixer: Number of relevant iterations not set.
  Defaulting to    8 iterations.
  Pulay mixer: Number of initial linear mixing iterations not set.
  Defaulting to    0 iterations.
  Work space size for distributed Hartree potential not set.
  Defaulting to   0.200000E+03 MB.
  Mixing parameter for charge density mixing has not been set.
  Using default: charge_mix_param =     0.0500.
  The mixing parameter will be adjusted in iteration number     2 of the first full s.c.f. cycle only.
  Algorithm-dependent basis array size parameters:
  | n_max_pulay                         :        8
  Maximum number of self-consistency iterations not provided.
  Presetting  1000 iterations.
  Presetting      1001 iterations before the initial mixing cycle
  is restarted anyway using the sc_init_iter criterion / keyword.
  Presetting a factor      1.000 between actual scf density residual
  and density convergence criterion sc_accuracy_rho below which sc_init_iter
  takes no effect.
 * No s.c.f. convergence criteria (sc_accuracy_*) were provided in control.in.
 * The run will proceed with a reasonable default guess, but please check whether.
 * the s.c.f. cycles seem to take too much or too little time.
  Calculation of forces was not defined in control.in. No forces will be calculated.
  Geometry relaxation not requested: no relaxation will be performed.
 * Notice: The s.c.f. convergence criterion sc_accuracy_rho was not provided.
 * We used to stop in this case, and ask the user to provide reasonable
 * scf convergence criteria. However, this led some users to employ criteria
 * that led to extremely long run times, e.g., for simple relaxation.
 * We now preset a default value for sc_accuracy_rho if it is not set.
 * You may still wish to check if this setting is too tight or too loose for your needs.
 * Based on n_atoms and forces and force-correction status, FHI-aims chose sc_accuracy_rho =  0.326599E-04 .
  No accuracy limit for integral partition fn. given. Defaulting to  0.1000E-14.
  No threshold value for u(r) in integrations given. Defaulting to  0.1000E-05.
  No accuracy for occupation numbers given. Defaulting to  0.1000E-12.
  No threshold value for occupation numbers given. Defaulting to  0.0000E+00.
  No accuracy for fermi level given. Defaulting to  0.1000E-19.
  Maximum # of iterations to find E_F not set. Defaulting to  200.
  Preferred method for the eigenvalue solver ('KS_method') not specified in 'control.in'.
  Defaulting to serial version, LAPACK (via ELSI), since more k-points than CPUs available.
  Will not use alltoall communication since running on < 1024 CPUs.
  Threshold for basis singularities not set.
  Default threshold for basis singularities:  0.1000E-04
  partition_type (choice of integration weights) for integrals was not specified.
  | Using a version of the partition function of Stratmann and coworkers ('stratmann_sparse').
  | At each grid point, the set of atoms used to build the partition table is smoothly restricted to
  | only those atoms whose free-atom density would be non-zero at that grid point.
  Partitioning for Hartree potential was not defined. Using partition_type for integrals.
  | Adjusted default value of keyword multip_moments_threshold to:       0.10000000E-11
  | This value may affect high angular momentum components of the Hartree potential in periodic systems.
  Threshold for auxiliary basis singularities not set.
  Default threshold for auxiliary basis singularities:  0.1000E-04
  No q(lm)/r^(l+1) cutoff set for long-range Hartree potential.
  | Using default value of  0.100000E-09 .
  | Verify using the multipole_threshold keyword.
  Defaulting to new monopole extrapolation.
  Density update method: automatic selection selected.
  Using density matrix based charge density update.
  Using density matrix based charge density update.
  Using packed matrix style: index .
 * NOTE: You are attempting to run a periodic structure with an exchange treatment
 * which requires a two-electron Coulomb operator (Hartree-Fock or a hybrid functional).
 * The present implementation is reliable to our knowledge, but some things
 * (like band structure output, or perhaps the auxilary basis set for small
 * orbital basis sets - see the "for_aux" keyword) require extra care.
 * Please let us know if you encounter any trouble.
  Coulomb operator: Defaulting to screening threshold for four-center integrals:   0.100000E-06
  Coulomb operator: Defaulting to screening threshold for Coulomb matrix:   0.100000E-09
  Fock matrix calculation: Setting the screening threshold for overlap matrix to coul_mat_threshold:   0.100000E-09
  Coulomb operator: Defaulting to 'LVL_fast' resolution of identity - RI_type = LVL_fast 
  No other resolution of identity version is supported for periodic boundary conditions at present.
  Coulomb operator: Defaulting to logarithmic spherical Bessel transform integrals (use_logsbt .true.).
  HSE with LVL_fast: Also defaulting to logarithmic spherical Bessel transform integrals.
  Defaulting to use time-reversal symmetry for k-point grid.
  Charge integration errors on the 3D integration grid will be compensated
  by explicit normalization and distribution of residual charges.
  Use the "compensate_multipole_errors" flag to change this behaviour.
  LVL not implemented with density matrix yet
  -> switching to transformed overlap
  LVL probably works better with logsbt
  Default to 1D ("use_logsbt") integrations for auxiliary 2-center integrals.
  Default onset of logarithmic r-grid for SBT is -38.000000000000
  Default onset of logarithmic k-grid for SBT is -25.000000000000
  Default range of logarithmic r- and k-grid for SBT is  45.000000000000
  Default number of logarithmic r- and k-grid for SBT is   4096
  * Use logSBT for radial HSE integration, too
  Set 'collect_eigenvectors' to be '.true.' for all serial calculations. This is mandatory.
  Set 'collect_eigenvectors' to be '.true.' for KS_method lapack_fast and serial.
 
  Consistency checks for the contents of geometry.in are next.
 

  Range separation radius for Ewald summation (hartree_convergence_parameter):      5.00000000 bohr.
  Number of empty states per atom not set in control.in - providing a guess from actual geometry.
  | Total number of empty states used during s.c.f. cycle:      363
  If you use a very high smearing, use empty_states (per atom!) in control.in to increase this value.

  Structure-dependent array size parameters: 
  | Maximum number of distinct radial functions  :       72
  | Maximum number of basis functions            :     3675
  | Number of Kohn-Sham states (occupied + empty):     1413
------------------------------------------------------------
  Setting Coulomb cut-width to  1.091868692359 * rcut.
  Setting Coulomb cutting radius rcut to 31.328878550519 A.
 Error: The dipole correction needs vacuum z-level to be defined
 Vacuum level will be determined automatically.
 Determine position of vacuum level automatically
 **WARNING** : This feature is experimental and still requires some testing
 **PLEASE ** : If you see it fail, please report.
 Vacuum level determined:
 set_vacuum_level    101.735417320000

------------------------------------------------------------
          Preparing all fixed parts of the calculation.
------------------------------------------------------------
  Determining machine precision:
    2.225073858507201E-308
  Setting up grids for atomic and cluster calculations.

  Creating wave function, potential, and density for free atoms.
  Runtime choices for atomic solver:
  | atomic solver xc        : PBE
  | compute density gradient: 1
  | compute kinetic density : F

  Species: Se

  List of occupied orbitals and eigenvalues:
    n    l              occ      energy [Ha]    energy [eV]
    1    0           2.0000      -466.337810    -12689.6975
    2    0           2.0000       -59.202598     -1610.9847
    3    0           2.0000        -7.847116      -213.5309
    4    0           2.0000        -0.634372       -17.2621
    2    1           6.0000       -52.061107     -1416.6548
    3    1           6.0000        -5.620941      -152.9536
    4    1           4.0000        -0.238469        -6.4891
    3    2          10.0000        -1.951949       -53.1152


  Species: S

  List of occupied orbitals and eigenvalues:
    n    l              occ      energy [Ha]    energy [eV]
    1    0           2.0000       -88.680731     -2413.1255
    2    0           2.0000        -7.781719      -211.7513
    3    0           2.0000        -0.633662       -17.2428
    2    1           6.0000        -5.751976      -156.5192
    3    1           4.0000        -0.257086        -6.9957


  Species: Mo

  List of occupied orbitals and eigenvalues:
    n    l              occ      energy [Ha]    energy [eV]
    1    0           2.0000      -745.344654    -20281.8600
    2    0           2.0000      -103.288246     -2810.6162
    3    0           2.0000       -17.516687      -476.6533
    4    0           2.0000        -2.358559       -64.1796
    5    0           1.0000        -0.145159        -3.9500
    2    1           6.0000       -92.308627     -2511.8455
    3    1           6.0000       -13.936005      -379.2180
    4    1           6.0000        -1.408138       -38.3174
    3    2          10.0000        -8.119011      -220.9295
    4    2           5.0000        -0.132984        -3.6187


  Species: W

  List of occupied orbitals and eigenvalues:
    n    l              occ      energy [Ha]    energy [eV]
    1    0           2.0000     -2764.899999    -75236.7570
    2    0           2.0000      -447.822848    -12185.8797
    3    0           2.0000      -101.923634     -2773.4832
    4    0           2.0000       -20.945301      -569.9506
    5    0           2.0000        -2.899582       -78.9016
    6    0           2.0000        -0.207066        -5.6345
    2    1           6.0000      -391.021390    -10640.2334
    3    1           6.0000       -85.417793     -2324.3364
    4    1           6.0000       -15.562838      -423.4864
    5    1           6.0000        -1.582233       -43.0547
    3    2          10.0000       -66.517936     -1810.0451
    4    2          10.0000        -8.758436      -238.3292
    5    2           4.0000        -0.161873        -4.4048
    4    3          14.0000        -1.221948       -33.2509


  Species: N

  List of occupied orbitals and eigenvalues:
    n    l              occ      energy [Ha]    energy [eV]
    1    0           2.0000       -14.144983      -384.9046
    2    0           2.0000        -0.682735       -18.5782
    2    1           3.0000        -0.260361        -7.0848


  Species: Ne

  List of occupied orbitals and eigenvalues:
    n    l              occ      energy [Ha]    energy [eV]
    1    0           2.0000       -30.305932      -824.6664
    2    0           1.9600        -1.328715       -36.1562
    2    1           6.0000        -0.487298       -13.2601


  Adding cutoff potential to free-atom effective potential.
  Creating fixed part of basis set: Ionic, confined, hydrogenic.
 
  Se                   ion:

  List of free ionic orbitals and eigenvalues:
    n    l      energy [Ha]    energy [eV]
    1    0      -467.261007    -12714.8189
    2    0       -60.104893     -1635.5374
    3    0        -8.743714      -237.9286
    4    0        -1.414053       -38.4783
    2    1       -52.964156     -1441.2280
    3    1        -6.516916      -177.3343
    4    1        -0.961869       -26.1738
    3    2        -2.844511       -77.4031


  List of ionic basis orbitals and eigenvalues:
    n    l      energy [Ha]    energy [eV]    outer radius [A]
    4    0        -1.414046       -38.4782       4.083166

 
  Se                   hydrogenic:
 
  List of hydrogenic basis orbitals: 
    n    l      effective z      eigenvalue [eV]  inner max. [A]     outer max. [A]     outer radius [A]   
    3    2         4.300000       -27.9518           1.103845           1.103845           5.278265
    2    1         1.600000        -8.6828           1.326010           1.326010           5.475439
    4    3         7.200000       -44.0822           1.173422           1.173422           4.965294
 
 
  S                    ion:

  List of free ionic orbitals and eigenvalues:
    n    l      energy [Ha]    energy [eV]
    1    0       -89.703778     -2440.9640
    2    0        -8.775428      -238.7916
    3    0        -1.470343       -40.0101
    2    1        -6.747660      -183.6132
    3    1        -1.048627       -28.5346


  List of ionic basis orbitals and eigenvalues:
    n    l      energy [Ha]    energy [eV]    outer radius [A]
    3    2        -0.495605       -13.4861       5.386362
    3    0        -1.470336       -40.0099       3.967934

 
  S                    hydrogenic:
 
  List of hydrogenic basis orbitals: 
    n    l      effective z      eigenvalue [eV]  inner max. [A]     outer max. [A]     outer radius [A]   
    2    1         1.800000       -11.0118           1.168531           1.168531           5.452614
    4    3         7.000000       -41.6672           1.212182           1.212182           5.066981
 
  List of extra hydrogenic orbitals for auxiliary basis: 
    n    l      effective z      eigenvalue [eV]  inner max. [A]     outer max. [A]     outer radius [A]   
    5    4        10.800000       -63.4785           1.227092           1.227092           4.766538
 
 
  Mo                   ion:

  List of free ionic orbitals and eigenvalues:
    n    l      energy [Ha]    energy [eV]
    1    0      -746.048685    -20301.0176
    2    0      -103.980912     -2829.4646
    3    0       -18.206601      -495.4268
    4    0        -3.040545       -82.7374
    2    1       -93.001013     -2530.6863
    3    1       -14.625827      -397.9890
    4    1        -2.084855       -56.7318
    3    2        -8.808854      -239.7011
    4    2        -0.765435       -20.8285


  List of ionic basis orbitals and eigenvalues:
    n    l      energy [Ha]    energy [eV]    outer radius [A]
    5    1        -0.465587       -12.6693       5.456393
    5    0        -0.650331       -17.6964       5.390095

 
  Mo                   hydrogenic:
 
  List of hydrogenic basis orbitals: 
    n    l      effective z      eigenvalue [eV]  inner max. [A]     outer max. [A]     outer radius [A]   
    4    3         8.400000       -60.0010           1.009788           1.009788           4.487018
    3    2         2.800000       -11.8048           1.687401           1.687401           5.456393
 
  List of extra hydrogenic orbitals for auxiliary basis: 
    n    l      effective z      eigenvalue [eV]  inner max. [A]     outer max. [A]     outer radius [A]   
    5    4        12.000000       -78.3687           1.100005           1.100005           4.432498
 
 
  W                    ion:

  List of free ionic orbitals and eigenvalues:
    n    l      energy [Ha]    energy [eV]
    1    0     -2765.664016    -75257.5469
    2    0      -448.543169    -12205.4806
    3    0      -102.635476     -2792.8534
    4    0       -21.655379      -589.2728
    5    0        -3.604872       -98.0936
    6    0        -0.752243       -20.4696
    2    1      -391.740682    -10659.8063
    3    1       -86.129333     -2343.6984
    4    1       -16.272893      -442.8080
    5    1        -2.280103       -62.0448
    3    2       -67.229405     -1829.4052
    4    2        -9.468448      -257.6496
    5    2        -0.806537       -21.9470
    4    3        -1.931058       -52.5468


  List of ionic basis orbitals and eigenvalues:
[...]
   1349       0.00000           0.277886            7.56166
   1350       0.00000           0.282531            7.68805
   1351       0.00000           0.282709            7.69290
   1352       0.00000           0.298521            8.12316
   1353       0.00000           0.299293            8.14419
   1354       0.00000           0.299293            8.14419
   1355       0.00000           0.299525            8.15048
   1356       0.00000           0.299525            8.15048
   1357       0.00000           0.299622            8.15312
   1358       0.00000           0.299622            8.15313
   1359       0.00000           0.301086            8.19298
   1360       0.00000           0.301086            8.19298
   1361       0.00000           0.305171            8.30414
   1362       0.00000           0.305184            8.30449
   1363       0.00000           0.305210            8.30518
   1364       0.00000           0.305216            8.30536
   1365       0.00000           0.307098            8.35657
   1366       0.00000           0.307098            8.35657
   1367       0.00000           0.309448            8.42051
   1368       0.00000           0.309448            8.42051
   1369       0.00000           0.309458            8.42077
   1370       0.00000           0.309458            8.42077
   1371       0.00000           0.310940            8.46111
   1372       0.00000           0.310940            8.46111
   1373       0.00000           0.310944            8.46123
   1374       0.00000           0.310945            8.46123
   1375       0.00000           0.311161            8.46713
   1376       0.00000           0.311161            8.46713
   1377       0.00000           0.332474            9.04708
   1378       0.00000           0.332474            9.04708
   1379       0.00000           0.333609            9.07796
   1380       0.00000           0.333609            9.07796
   1381       0.00000           0.333657            9.07927
   1382       0.00000           0.333657            9.07927
   1383       0.00000           0.341672            9.29736
   1384       0.00000           0.341672            9.29738
   1385       0.00000           0.341742            9.29928
   1386       0.00000           0.341799            9.30081
   1387       0.00000           0.341809            9.30110
   1388       0.00000           0.341846            9.30209
   1389       0.00000           0.342439            9.31823
   1390       0.00000           0.342439            9.31823
   1391       0.00000           0.345804            9.40980
   1392       0.00000           0.345808            9.40991
   1393       0.00000           0.345821            9.41028
   1394       0.00000           0.345824            9.41036
   1395       0.00000           0.347782            9.46364
   1396       0.00000           0.347782            9.46364
   1397       0.00000           0.350875            9.54779
   1398       0.00000           0.350875            9.54779
   1399       0.00000           0.350904            9.54858
   1400       0.00000           0.350904            9.54858
   1401       0.00000           0.360344            9.80545
   1402       0.00000           0.360344            9.80545
   1403       0.00000           0.360890            9.82031
   1404       0.00000           0.360890            9.82031
   1405       0.00000           0.360932            9.82147
   1406       0.00000           0.360932            9.82147
   1407       0.00000           0.361003            9.82340
   1408       0.00000           0.361004            9.82341
   1409       0.00000           0.361070            9.82522
   1410       0.00000           0.361071            9.82523
   1411       0.00000           0.368849           10.03688
   1412       0.00000           0.368849           10.03688
   1413       0.00000           0.371722           10.11508

  What follows are estimated values for band gap, HOMO, LUMO, etc.
  | They are estimated on a discrete k-point grid and not necessarily exact.
  | For converged numbers, create a DOS and/or band structure plot on a denser k-grid.

  Highest occupied state (VBM) at     -7.02338194 eV (relative to internal zero)
  | Occupation number:      1.34658836
  | K-point:       6 at    0.250000    0.500000    0.000000 (in units of recip. lattice)

  Lowest unoccupied state (CBM) at    -6.98921869 eV (relative to internal zero)
  | Occupation number:      0.97278663
  | K-point:      10 at    0.750000    0.250000    0.000000 (in units of recip. lattice)

  ESTIMATED overall HOMO-LUMO gap:      0.03416325 eV between HOMO at k-point 6 and LUMO at k-point 10
  | This appears to be an indirect band gap.
  | Smallest direct gap :      0.19143522 eV for k_point 2 at    0.000000    0.250000    0.000000 (in units of recip. lattice)
  However, this system has fractional occupation numbers. Since we use a finite k-point grid,
  this material is metallic within the approximate finite broadening function (occupation_type)
  applied to determine the occupation numbers.

  | Chemical Potential                          :    -6.99163088 eV
  | Note that, for insulating systems, the printed 'chemical potential' value is not uniquely defined.
  | It can be anywhere in the energy gap, as long as it correctly separates occupied and unoccupied states.
  | In systems with a gap, the physically relevant chemical potential is the VBM or HOMO.

  Writing energy levels:
  | Potential vacuum level, "upper" slab surface:    -0.55419799 eV
  | Potential vacuum level, "lower" slab surface:     0.52937782 eV
  | Work function ("upper" slab surface)        :     6.43743289 eV
  | Work function ("lower" slab surface)        :     7.52100869 eV
  | VBM (reference: upper vacuum level)         :     6.46918394 eV
  | CBM (reference: upper vacuum level)         :     6.43502070 eV

  Self-consistency cycle converged.


------------------------------------------------------------
  End self-consistency iteration #    35       :  max(cpu_time)    wall_clock(cpu1)
  | Time for this iteration                     :      446.395 s         446.466 s
  | Charge density update                       :        0.000 s           0.000 s
  | Density mixing                              :        0.032 s           0.032 s
  | Hartree multipole update                    :        0.024 s           0.024 s
  | Hartree multipole summation                 :       15.405 s          15.407 s
  | Integration                                 :        7.579 s           7.580 s
  | Fock matrix evaluation                      :      399.211 s         399.204 s
  | Solution of K.-S. eqns.                     :       24.139 s          24.140 s
  | Total energy evaluation                     :        0.001 s           0.001 s

  Partial memory accounting:
  | Current value for overall tracked memory usage:
  |   Minimum:     4599.511 MB (on task 13)
  |   Maximum:     4775.561 MB (on task  4)
  |   Average:     4685.906 MB
  | Peak value for overall tracked memory usage:
  |   Minimum:     6903.800 MB (on task  5 after allocating ovlp3fn2)
  |   Maximum:     7792.422 MB (on task  6 after allocating ovlp3fn2)
  |   Average:     7394.728 MB
  | Largest tracked array allocation so far:
  |   Minimum:     4485.575 MB (ovlp3fn2 on task  1)
  |   Maximum:     4600.342 MB (ovlp3fn2 on task  0)
  |   Average:     4534.387 MB
  Note:  These values currently only include a subset of arrays which are explicitly tracked.
  The "true" memory usage will be greater.
------------------------------------------------------------
  Obtaining max. number of non-zero basis functions in each batch .
  Evaluating KS electron density on previously omitted grid points, using the density matrix.
  Evaluating density matrix

  Entering Libmbd.
  Libmbd: VdW method: mbd-nl
  Libmbd: Evaluating kinetic energy density...

  Evaluating density matrix

  Libmbd: Performing Hirshfeld analysis...
  Libmbd: Calculating MBD energy...
  Libmbd: Evaluated energy: -0.73451295888480672

  Leaving Libmbd.


  Total energy components:
  | Sum of eigenvalues            :      -75720.13785705 Ha    -2060449.78562122 eV
  | XC energy correction          :       -2459.35580095 Ha      -66922.47632204 eV
  | XC potential correction       :        4636.37278717 Ha      126162.12259695 eV
  | Free-atom electrostatic energy:      -51923.11368267 Ha    -1412899.81085637 eV
  | Hartree energy correction     :          79.09931669 Ha        2152.40192007 eV
  | vdW energy correction         :          -0.73451296 Ha         -19.98711454 eV
  | Entropy correction            :          -0.00138694 Ha          -0.03774043 eV
  | ---------------------------
  | Total energy                  :     -125387.86974978 Ha    -3411977.53539716 eV
  | Total energy, T -> 0          :     -125387.87113671 Ha    -3411977.57313759 eV  <-- do not rely on this value for anything but (periodic) metals
  | Electronic free energy        :     -125387.87252365 Ha    -3411977.61087802 eV

  Derived energy quantities:
  | Kinetic energy                :      128669.32935544 Ha     3501270.59444795 eV
  | Electrostatic energy          :     -249353.75662584 Ha    -6785260.94806520 eV
  | Energy correction for multipole
  | error in Hartree potential    :          -0.03425154 Ha          -0.93203173 eV
  | Sum of eigenvalues per atom                           :      -20604.49785621 eV
  | Total energy (T->0) per atom                          :      -34119.77573138 eV  <-- do not rely on this value for anything but (periodic) metals
  | Electronic free energy per atom                       :      -34119.77610878 eV
  Timings for VdW correction (Tkatchenko-Scheffler 2009 or later):
  | CPU time:       28.093 s, Wall clock time:       28.019 s.

  Energy and forces in a compact form:
  | Total energy uncorrected      :         -0.341197753539716E+07 eV
  | Total energy corrected        :         -0.341197757313759E+07 eV  <-- do not rely on this value for anything but (periodic) metals
  | Electronic free energy        :         -0.341197761087802E+07 eV

  ------------------------------------ 
  Start decomposition of the XC Energy 
  ------------------------------------ 
  X and C from original XC functional choice 
  Hartree-Fock Energy :      -1121.676092589 Ha         -30522.359439884 eV
  X Energy            :      -4606.799527906 Ha        -125357.393268281 eV
  C Energy            :        -95.908448367 Ha          -2609.801665306 eV
  XC Energy w/o HF    :      -3581.031883685 Ha         -97444.835493703 eV
  Total XC Energy     :      -4702.707976273 Ha        -127967.194933587 eV
  ------------------------------------ 
  LDA X and C from self-consistent density 
  X Energy LDA        :      -4339.439712298 Ha        -118082.162525923 eV
  C Energy LDA        :       -178.763481210 Ha          -4864.401821769 eV
  ------------------------------------ 
  End decomposition of the XC Energy 
  ------------------------------------ 

------------------------------------------------------------

  | Chemical Potential                          :    -6.99163088 eV
  | Note that, for insulating systems, the printed 'chemical potential' value is not uniquely defined.
  | It can be anywhere in the energy gap, as long as it correctly separates occupied and unoccupied states.
  | In systems with a gap, the physically relevant chemical potential is the VBM or HOMO.

  Writing energy levels:
  | Potential vacuum level, "upper" slab surface:    -0.55419799 eV
  | Potential vacuum level, "lower" slab surface:     0.52937782 eV
  | Work function ("upper" slab surface)        :     6.43743289 eV
  | Work function ("lower" slab surface)        :     7.52100869 eV
  | VBM (reference: upper vacuum level)         :     6.46918394 eV
  | CBM (reference: upper vacuum level)         :     6.43502070 eV

------------------------------------------------------------------------------
  Final output of selected total energy values:

  The following output summarizes some interesting total energy values
  at the end of a run (AFTER all relaxation, molecular dynamics, etc.).

  | Total energy of the DFT / Hartree-Fock s.c.f. calculation      :       -3411977.535397161 eV
  | Final zero-broadening corrected energy (caution - metals only) :       -3411977.573137592 eV
  | For reference only, the value of 1 Hartree used in FHI-aims is :             27.211384500 eV
  | For reference only, the overall average (free atom contribution
  | + realspace contribution) of the electrostatic potential after
  | s.c.f. convergence is                                          :             -1.203282580 eV

  Before relying on these values, please be sure to understand exactly which
  total energy value is referred to by a given number. Different objects may
  all carry the same name 'total energy'. Definitions:

  Total energy of the DFT / Hartree-Fock s.c.f. calculation:
  | Note that this energy does not include ANY quantities calculated after the
  | s.c.f. cycle, in particular not ANY RPA, MP2, etc. many-body perturbation terms.

  Final zero-broadening corrected energy:
  | For metallic systems only, a broadening of the occupation numbers at the Fermi
  | level can be extrapolated back to zero broadening by an electron-gas inspired
  | formula. For all systems that are not real metals, this value can be
  | meaningless and should be avoided.

------------------------------------------------------------------------------
  Methods described in the following list of references were used in this FHI-aims run.
  If you publish the results, please make sure to cite these reference if they apply.
  FHI-aims is an academic code, and for our developers (often, Ph.D. students
  and postdocs), scientific credit in the community is essential.
  Thank you for helping us!

  For any use of FHI-aims, please cite:

    Volker Blum, Ralf Gehrke, Felix Hanke, Paula Havu, Ville Havu,
    Xinguo Ren, Karsten Reuter, and Matthias Scheffler
    'Ab initio molecular simulations with numeric atom-centered orbitals'
    Computer Physics Communications 180, 2175-2196 (2009)
    http://doi.org/10.1016/j.cpc.2009.06.022


  For Hartree-Fock, hybrid functionals, or many-body perturbation theory used in your run, please cite:

    Xinguo Ren, Patrick Rinke, Volker Blum, Juergen Wieferink, Alex Tkatchenko,
    Andrea Sanfilippo, Karsten Reuter, and Matthias Scheffler,
    'Resolution-of-identity approach to Hartree-Fock, hybrid density functionals,
    RPA, MP2, and GW with numeric atom-centered orbital basis functions'
    New Journal of Physics 14, 053020 (2012).
    http://doi.org/10.1088/1367-2630/14/5/053020


  The provided symmetry information was generated with SPGlib:

    Atsushi Togo, Yusuke Seto, Dimitar Pashov
    SPGlib 1.7.3 obtained from http://spglib.sourceforge.net
    Copyright (C) 2008 Atsushi Togo


  The ELSI infrastructure was used in your run to solve the Kohn-Sham electronic structure.
  Please check out http://elsi-interchange.org to learn more.
  If scalability is important for your project, please acknowledge ELSI by citing:

    V. W-z. Yu, F. Corsetti, A. Garcia, W. P. Huhn, M. Jacquelin, W. Jia,
    B. Lange, L. Lin, J. Lu, W. Mi, A. Seifitokaldani, A. Vazquez-Mayagoitia,
    C. Yang, H. Yang, and V. Blum
    'ELSI: A unified software interface for Kohn-Sham electronic structure solvers'
    Computer Physics Communications 222, 267-285 (2018).
    http://doi.org/10.1016/j.cpc.2017.09.007


  For the real-space grid partitioning and parallelization used in this calculation, please cite:

    Ville Havu, Volker Blum, Paula Havu, and Matthias Scheffler,
    'Efficient O(N) integration for all-electron electronic structure calculation'
    'using numerically tabulated basis functions'
    Journal of Computational Physics 228, 8367-8379 (2009).
    http://doi.org/10.1016/j.jcp.2009.08.008


  The high-level electronic structure method used in your calculation
  employed our efficient localized resolution of identity for the Coulomb operator.
  Some calculations, especially large-scale hybrid density functional theory,
  are only possible thanks to this development. For this feature, please cite:

    Arvid Ihrig, Juergen Wieferink, Igor Ying Zhang, Matti Ropo, Xinguo Ren,
    Patrick Rinke, Matthias Scheffler, and Volker Blum,
    'Accurate localized resolution of identity approach for linear-scaling
    hybrid density functionals and for many-body perturbation theory'
    New Journal of Physics 117, 093020 (2015).
    http://doi.org/10.1088/1367-2630/17/9/093020

  Of course, there are many other important community references, e.g., those cited in the
  above references. Our list is limited to references that describe implementations in the
  FHI-aims code. The reason is purely practical (length of this list) - please credit others as well.

 * A warning was issued further up regarding the CPU load.
   Some CPUs do not participate in the eigenvalue solution.
   In corner cases, this may be the correct behavior. Otherwise,
   consider using a scalapack/elpa version of the code for a parallel treatment.

------------------------------------------------------------
          Leaving FHI-aims.
          Date     :  20221024, Time     :  194440.325

          Computational steps:
          | Number of self-consistency cycles          :           35
          | Number of SCF (re)initializations          :            1

          Detailed time accounting                     :  max(cpu_time)    wall_clock(cpu1)
          | Total time                                  :    16579.229 s       16582.018 s
          | Preparation time                            :        1.070 s           1.088 s
          | Boundary condition initalization            :        4.996 s           4.997 s
          | Grid partitioning                           :        8.358 s           8.360 s
          | Preloading free-atom quantities on grid     :        6.258 s           6.260 s
          | Free-atom superposition energy              :        0.816 s           0.815 s
          | Total time for integrations                 :      274.152 s         274.192 s
          | Product basis setup: Total time             :      276.396 s         276.482 s
          | Total time evaluating exchange matrix       :    14052.100 s       14051.819 s
          | Total time for solution of K.-S. equations  :      906.509 s         906.568 s
          | Total time for density update               :      484.270 s         484.336 s
          | Total time for mixing                       :        1.042 s           1.044 s
          | Total time for Hartree multipole update     :        0.846 s           0.847 s
          | Total time for Hartree multipole sum        :      533.935 s         533.987 s
          | Total time for total energy evaluation      :        0.022 s           0.024 s
          | Total time for scaled ZORA corrections      :        0.000 s           0.000 s
          | Total time for vdW correction               :       28.093 s          28.019 s

          Partial memory accounting:
          | Residual value for overall tracked memory usage across tasks:     0.000000 MB (should be 0.000000 MB)
          | Peak values for overall tracked memory usage:
          |   Minimum:     6903.800 MB (on task  5 after allocating ovlp3fn2)
          |   Maximum:     7792.422 MB (on task  6 after allocating ovlp3fn2)
          |   Average:     7394.728 MB
          | Largest tracked array allocation:
          |   Minimum:     4485.575 MB (ovlp3fn2 on task  1)
          |   Maximum:     4600.342 MB (ovlp3fn2 on task  0)
          |   Average:     4534.387 MB
          Note:  These values currently only include a subset of arrays which are explicitly tracked.
          The "true" memory usage will be greater.

          Have a nice day.
------------------------------------------------------------
