------------------------------------------------------------
          Invoking FHI-aims ...

          When using FHI-aims, please cite the following reference:

            Volker Blum, Ralf Gehrke, Felix Hanke, Paula Havu,
            Ville Havu, Xinguo Ren, Karsten Reuter, and Matthias Scheffler,
            'Ab Initio Molecular Simulations with Numeric Atom-Centered Orbitals',
            Computer Physics Communications 180, 2175-2196 (2009)

          In addition, many other developments in FHI-aims are likely important for
          your particular application. A partial list of references is given at the end of
          this file. Thank you for giving credit to the authors of these developments.

          For any questions about FHI-aims, please visit our slack channel at

            https://fhi-aims.slack.com

          and our main development and support site at

            https://aims-git.rz-berlin.mpg.de .

          The latter site, in particular, has a wiki to collect information, as well
          as an issue tracker to log discussions, suggest improvements, and report issues
          or bugs. https://aims-git.rz-berlin.mpg.de is also the main development site
          of the project and all new and updated code versions can be obtained there.
          Please send an email to aims-coordinators@fhi-berlin.mpg.de and we will add
          you to these sites. They are for you and everyone is welcome there.

------------------------------------------------------------



  Date     :  20211215, Time     :  153351.803
  Time zero on CPU 1             :   0.168044000000000E+00  s.
  Internal wall clock time zero  :           408814431.803  s.

  FHI-aims created a unique identifier for this run for later identification
  aims_uuid : 5C61C745-3915-4334-A211-E1BB11CD43F9

  Build configuration of the current instance of FHI-aims
  -------------------------------------------------------
  FHI-aims version      : 210513
  Commit number         : 1a2d0b161
  CMake host system     : Linux-4.12.14-122.63-default
  CMake version         : 3.5.2
  Fortran compiler      : /mpcdf/soft/SLE_12/packages/x86_64/intel_parallel_studio/2020.1/compilers_and_libraries_2020.1.217/linux/mpi/intel64/bin/mpiifort (Intel) version 19.1.0.20200306
  Fortran compiler flags: -O3 -ip -fp-model precise
  C compiler            : /mpcdf/soft/SLE_12/packages/x86_64/intel/19.1.1/bin/icc (Intel) version 19.1.0.20200306
  C compiler flags      : -O3 -ip -fp-model precise -std=gnu99
  C++ compiler          : /mpcdf/soft/SLE_12/packages/x86_64/intel/19.1.1/bin/icpc (Intel) version 19.1.0.20200306
  C++ compiler flags    : -O3 -ip -fp-model precise -std=gnu99
  Using MPI
  Using ScaLAPACK
  Using LibXC
  Using i-PI
  Using RLSY
  Linking against: /mpcdf/soft/SLE_12/packages/x86_64/intel_parallel_studio/2020.1/mkl/lib/intel64/libmkl_intel_lp64.so
                   /mpcdf/soft/SLE_12/packages/x86_64/intel_parallel_studio/2020.1/mkl/lib/intel64/libmkl_sequential.so
                   /mpcdf/soft/SLE_12/packages/x86_64/intel_parallel_studio/2020.1/mkl/lib/intel64/libmkl_core.so
                   /mpcdf/soft/SLE_12/packages/x86_64/intel_parallel_studio/2020.1/mkl/lib/intel64/libmkl_blacs_intelmpi_lp64.so
                   /mpcdf/soft/SLE_12/packages/x86_64/intel_parallel_studio/2020.1/mkl/lib/intel64/libmkl_scalapack_lp64.so

  Using      160 parallel tasks.
  Task        0 on host co3617 reporting.
  Task        1 on host co3617 reporting.
  Task        2 on host co3617 reporting.
  Task        3 on host co3617 reporting.
  Task        4 on host co3617 reporting.
  Task        5 on host co3617 reporting.
  Task        6 on host co3617 reporting.
  Task        7 on host co3617 reporting.
  Task        8 on host co3617 reporting.
  Task        9 on host co3617 reporting.
  Task       10 on host co3617 reporting.
  Task       11 on host co3617 reporting.
  Task       12 on host co3617 reporting.
  Task       13 on host co3617 reporting.
  Task       14 on host co3617 reporting.
  Task       15 on host co3617 reporting.
  Task       16 on host co3617 reporting.
  Task       17 on host co3617 reporting.
  Task       18 on host co3617 reporting.
  Task       19 on host co3617 reporting.
  Task       20 on host co3617 reporting.
  Task       21 on host co3617 reporting.
  Task       22 on host co3617 reporting.
  Task       23 on host co3617 reporting.
  Task       24 on host co3617 reporting.
  Task       25 on host co3617 reporting.
  Task       26 on host co3617 reporting.
  Task       27 on host co3617 reporting.
  Task       28 on host co3617 reporting.
  Task       29 on host co3617 reporting.
  Task       30 on host co3617 reporting.
  Task       31 on host co3617 reporting.
  Task       32 on host co3617 reporting.
  Task       33 on host co3617 reporting.
  Task       34 on host co3617 reporting.
  Task       35 on host co3617 reporting.
  Task       36 on host co3617 reporting.
  Task       37 on host co3617 reporting.
  Task       38 on host co3617 reporting.
  Task       39 on host co3617 reporting.
  Task       40 on host co3618 reporting.
  Task       41 on host co3618 reporting.
  Task       42 on host co3618 reporting.
  Task       43 on host co3618 reporting.
  Task       44 on host co3618 reporting.
  Task       45 on host co3618 reporting.
  Task       46 on host co3618 reporting.
  Task       47 on host co3618 reporting.
  Task       48 on host co3618 reporting.
  Task       49 on host co3618 reporting.
  Task       50 on host co3618 reporting.
  Task       51 on host co3618 reporting.
  Task       52 on host co3618 reporting.
  Task       53 on host co3618 reporting.
  Task       54 on host co3618 reporting.
  Task       55 on host co3618 reporting.
  Task       56 on host co3618 reporting.
  Task       57 on host co3618 reporting.
  Task       58 on host co3618 reporting.
  Task       59 on host co3618 reporting.
  Task       60 on host co3618 reporting.
  Task       61 on host co3618 reporting.
  Task       62 on host co3618 reporting.
  Task       63 on host co3618 reporting.
  Task       64 on host co3618 reporting.
  Task       65 on host co3618 reporting.
  Task       66 on host co3618 reporting.
  Task       67 on host co3618 reporting.
  Task       68 on host co3618 reporting.
  Task       69 on host co3618 reporting.
  Task       70 on host co3618 reporting.
  Task       71 on host co3618 reporting.
  Task       72 on host co3618 reporting.
  Task       73 on host co3618 reporting.
  Task       74 on host co3618 reporting.
  Task       75 on host co3618 reporting.
  Task       76 on host co3618 reporting.
  Task       77 on host co3618 reporting.
  Task       78 on host co3618 reporting.
  Task       79 on host co3618 reporting.
  Task       80 on host co3622 reporting.
  Task       81 on host co3622 reporting.
  Task       82 on host co3622 reporting.
  Task       83 on host co3622 reporting.
  Task       84 on host co3622 reporting.
  Task       85 on host co3622 reporting.
  Task       86 on host co3622 reporting.
  Task       87 on host co3622 reporting.
  Task       88 on host co3622 reporting.
  Task       89 on host co3622 reporting.
  Task       90 on host co3622 reporting.
  Task       91 on host co3622 reporting.
  Task       92 on host co3622 reporting.
  Task       93 on host co3622 reporting.
  Task       94 on host co3622 reporting.
  Task       95 on host co3622 reporting.
  Task       96 on host co3622 reporting.
  Task       97 on host co3622 reporting.
  Task       98 on host co3622 reporting.
  Task       99 on host co3622 reporting.
  Task      100 on host co3622 reporting.
  Task      101 on host co3622 reporting.
  Task      102 on host co3622 reporting.
  Task      103 on host co3622 reporting.
  Task      104 on host co3622 reporting.
  Task      105 on host co3622 reporting.
  Task      106 on host co3622 reporting.
  Task      107 on host co3622 reporting.
  Task      108 on host co3622 reporting.
  Task      109 on host co3622 reporting.
  Task      110 on host co3622 reporting.
  Task      111 on host co3622 reporting.
  Task      112 on host co3622 reporting.
  Task      113 on host co3622 reporting.
  Task      114 on host co3622 reporting.
  Task      115 on host co3622 reporting.
  Task      116 on host co3622 reporting.
  Task      117 on host co3622 reporting.
  Task      118 on host co3622 reporting.
  Task      119 on host co3622 reporting.
  Task      120 on host co3624 reporting.
  Task      121 on host co3624 reporting.
  Task      122 on host co3624 reporting.
  Task      123 on host co3624 reporting.
  Task      124 on host co3624 reporting.
  Task      125 on host co3624 reporting.
  Task      126 on host co3624 reporting.
  Task      127 on host co3624 reporting.
  Task      128 on host co3624 reporting.
  Task      129 on host co3624 reporting.
  Task      130 on host co3624 reporting.
  Task      131 on host co3624 reporting.
  Task      132 on host co3624 reporting.
  Task      133 on host co3624 reporting.
  Task      134 on host co3624 reporting.
  Task      135 on host co3624 reporting.
  Task      136 on host co3624 reporting.
  Task      137 on host co3624 reporting.
  Task      138 on host co3624 reporting.
  Task      139 on host co3624 reporting.
  Task      140 on host co3624 reporting.
  Task      141 on host co3624 reporting.
  Task      142 on host co3624 reporting.
  Task      143 on host co3624 reporting.
  Task      144 on host co3624 reporting.
  Task      145 on host co3624 reporting.
  Task      146 on host co3624 reporting.
  Task      147 on host co3624 reporting.
  Task      148 on host co3624 reporting.
  Task      149 on host co3624 reporting.
  Task      150 on host co3624 reporting.
  Task      151 on host co3624 reporting.
  Task      152 on host co3624 reporting.
  Task      153 on host co3624 reporting.
  Task      154 on host co3624 reporting.
  Task      155 on host co3624 reporting.
  Task      156 on host co3624 reporting.
  Task      157 on host co3624 reporting.
  Task      158 on host co3624 reporting.
  Task      159 on host co3624 reporting.

  Performing system and environment tests:
  | Environment variable OMP_NUM_THREADS correctly set to 1.
  | Checking for ScaLAPACK...
  | Testing pdtran()...
  | All pdtran() tests passed.

  Obtaining array dimensions for all initial allocations:
  
  -----------------------------------------------------------------------
  Parsing control.in (first pass over file, find array dimensions only).
  The contents of control.in will be repeated verbatim below
  unless switched off by setting 'verbatim_writeout .false.' .
  in the first line of control.in .
  -----------------------------------------------------------------------
  
  ##### Physical settings  ################
  xc                 pbe
  spin               none
  charge      0.0
  relativistic       atomic_zora scalar
  #elsi_restart read
  # SCF settings
  use_symmetric_forces .true.
  relax_geometry trm 1E-3
  
  # k-grid settings  (to be adjusted)
  k_grid  2 2 1
  empty_states 8
  use_dipole_correction
  many_body_dispersion_nl    beta=0.81
  #
  #  FHI-aims code project
  # Volker Blum, Fritz Haber Institute Berlin, 2009
  #
  #  Suggested "tight" defaults for S atom (to be pasted into control.in file)
  #
  #  Revised Jan 04, 2011, following tests (SiC) done by Lydia Nemec:
  #     d and g functions of tier 2 now enabled by default.
  #
  ################################################################################
    species        S
  #     global species definitions
      nucleus             16
      mass                32.065
  #
      l_hartree           6
  #
      cut_pot             4.0          2.0  1.0
      basis_dep_cutoff    1e-4
  #
      radial_base         44 7.0
      radial_multiplier   2
      angular_grids       specified
        division   0.4665  110
        division   0.5810  194
        division   0.7139  302
        division   0.8274  434
  #      division   0.9105  590
  #      division   1.0975  770
  #      division   1.2028  974
  #      outer_grid  974
        outer_grid  434
  ################################################################################
  #
  #  Definition of "minimal" basis
  #
  ################################################################################
  #     valence basis states
      valence      3  s   2.
      valence      3  p   4.
  #     ion occupancy
      ion_occ      3  s   1.
      ion_occ      3  p   3.
  ################################################################################
  #
  #  Suggested additional basis functions. For production calculations,
  #  uncomment them one after another (the most important basis functions are
  #  listed first).
  #
  #  Constructed for dimers: 1.6 A, 1.9 A, 2.5 A, 3.25 A, 4.0 A
  #
  ################################################################################
  #  "First tier" - improvements: -652.81 meV to -45.53 meV
       ionic 3 d auto
       hydro 2 p 1.8
       hydro 4 f 7
       ionic 3 s auto
  #  "Second tier" - improvements: -30.20 meV to -1.74 meV
       hydro 4 d 6.2
       hydro 5 g 10.8
  #     hydro 4 p 4.9
  #     hydro 5 f 10
  #     hydro 1 s 0.8
  #  "Third tier" - improvements: -1.04 meV to -0.20 meV
  #     hydro 3 d 3.9
  #     hydro 3 d 2.7
  #     hydro 5 g 12
  #     hydro 4 p 10.4
  #     hydro 5 f 12.4
  #     hydro 2 s 1.9
  #  "Fourth tier" - improvements: -0.35 meV to -0.06 meV
  #     hydro 4 d 10.4
  #     hydro 4 p 7.2
  #     hydro 4 d 10
  #     hydro 5 g 19.2
  #     hydro 4 s 12
  
  ################################################################################
  #
  # For methods that use the localized form of the "resolution of identity" for
  # the two-electron Coulomb operator (RI_method LVL), particularly Hartree-Fock and
  # hybrid density functional calculations, the highest accuracy can be obtained by
  # uncommenting the line beginning with "for_aux"  below, thus adding an extra g radial
  # function to the construction of the product basis set for the expansion.
  # See Ref. New J. Phys. 17, 093020 (2015) for more information, particularly Figs. 1 and 6.
  #
  ################################################################################
  #
  # for_aux hydro 5 g 6.0
  ################################################################################
  #
  #  FHI-aims code project
  # Volker Blum, Fritz Haber Institute Berlin, 2009
  #
  #  Suggested "tight" defaults for Mo atom (to be pasted into control.in file)
  #
  ################################################################################
    species        Mo
  #     global species definitions
      nucleus             42
      mass                95.94
  #
      l_hartree           6
  #
      cut_pot             4.0  2.0  1.0
      basis_dep_cutoff    1e-4
  #
      radial_base         59 7.0
      radial_multiplier   2
      angular_grids specified
        division   0.3117   50
        division   0.6750  110
        division   1.0351  194
        division   1.2073  302
        division   1.6402  434
  #      division   1.9185  590
  #      division   2.0237  770
  #      division   2.0980  974
  #      division   2.7972 1202
  #      outer_grid  974
        outer_grid  434
  ################################################################################
  #
  #  Definition of "minimal" basis
  #
  ################################################################################
  #     valence basis states
      valence      5  s   1.
      valence      4  p   6.
      valence      4  d   5.
  #     ion occupancy
      ion_occ     5  s   0.
      ion_occ     4  p   6.
      ion_occ     4  d   4.
  ################################################################################
  #
  #  Suggested additional basis functions. For production calculations,
  #  uncomment them one after another (the most important basis functions are
  #  listed first).
  #
  #  Constructed for dimers: 1.675 A, 1.9 A, 2.375 A, 3.00 A, 4.00 A
  #
  ################################################################################
  #  "First tier"  - max. impr. -711.23  meV, min. impr. -21.07 meV
       hydro 4 f 8.4
       hydro 3 d 2.8
       ionic 5 p auto
       hydro 5 g 12
       ionic 5 s auto
  #  "Second tier" - max. impr. -39.38  meV, min. impr. -2.68 meV
  #     hydro 4 f 12.4
  #     hydro 3 d 3.3
  #     hydro 6 h 17.2
  #     hydro 4 f 7.6
  #     hydro 3 p 3.0
  #     hydro 1 s 0.65
  #  "Third tier"  - max. impr. -5.50 meV, min. impr. -0.47 meV
  #     hydro 4 f 29.2
  #     hydro 5 g 11.2
  #     hydro 3 d 6.8
  #     hydro 6 h 14.8
  #     hydro 2 p 2.3
  #     hydro 4 s 3.8
  #  "Fourth tier"  - max. impr. -0.58 meV, min. impr. -0.19 meV
  #     hydro 5 f 6.8
  #     hydro 5 d 14.8
  #     hydro 6 s 7.8
  #     hydro 5 g 20.8
  #     hydro 5 d 10.4
  #     hydro 5 p 9.8
  #  Further functions - -0.17 meV and below
  #     hydro 5 d 3.2
  
  -----------------------------------------------------------------------
  Completed first pass over input file control.in .
  -----------------------------------------------------------------------
  
  
  -----------------------------------------------------------------------
  Parsing geometry.in (first pass over file, find array dimensions only).
  The contents of geometry.in will be repeated verbatim below
  unless switched off by setting 'verbatim_writeout .false.' .
  in the first line of geometry.in .
  -----------------------------------------------------------------------
  
  #
  # This is the geometry file that corresponds to the current relaxation step.
  # If you do not want this file to be written, set the "write_restart_geometry" flag to .false.
  #  aims_uuid : 6862FE82-2DFC-4852-AADB-59BAB442E353
  #
    set_vacuum_level        52.700086
  lattice_vector     15.76960250      0.00000000      0.00000000
  lattice_vector     -7.88732950     13.65525595      0.00000000
  lattice_vector      0.00000000      0.00000000     99.30554027
  atom       1.61062573      0.97054103      3.10466198 Mo
  atom       0.03117583      1.88530311      4.67266916 S
  atom       0.03117166      1.87744631      1.53714890 S
  atom       0.03014782      3.70207498      3.09873429 Mo
  atom      -1.56586066      4.61436268      4.65681964 S
  atom      -1.54685403      4.60245241      1.52154438 S
  atom      -1.55323022      6.42790017      3.08113243 Mo
  atom      -3.15553685      7.32379027      4.63043523 S
  atom      -3.12390131      7.34207317      1.50521526 S
  atom      -3.13048910      9.15951835      3.08113534 Mo
  atom      -4.70809022     10.05425704      4.65692029 S
  atom      -4.70890251     10.07685729      1.52163298 S
  atom      -4.70043401     11.89295919      3.09890951 Mo
  atom      -6.27407247     12.80129026      4.67324192 S
  atom      -6.28074113     12.80513297      1.53670259 S
  atom       4.76938219      0.98443226      3.08146983 Mo
  atom       3.20198831      1.89017236      4.66147967 S
  atom       3.17951949      1.87699153      1.52488576 S
  atom       3.20133420      3.70036733      3.08126194 Mo
  atom       1.62681262      4.61381672      4.65713353 S
  atom       1.60770001      4.60179071      1.52106859 S
  atom       1.61304256      6.42636927      3.08098069 Mo
  atom       0.03037502      7.33971980      4.64670603 S
  atom       0.03023901      7.33840938      1.51532634 S
  atom       0.02851427      9.16337035      3.08072126 Mo
  atom      -1.54991127     10.07437938      4.64802734 S
  atom      -1.55112232     10.07508427      1.51422847 S
  atom      -1.54816053     11.90061084      3.08114617 Mo
  atom      -3.11203839     12.81922022      4.65690105 S
  atom      -3.13201333     12.80861399      1.52166582 S
  atom       7.91565337      1.00441089      3.04084363 Mo
  atom       6.38764302      1.95982610      4.60808674 S
  atom       6.32138154      1.89499064      1.47004244 S
  atom       6.38828381      3.72928393      2.99524315 Mo
  atom       4.85489948      4.61321825      4.60813339 S
  atom       4.76592664      4.58818433      1.46964797 S
  atom       4.79135917      6.41407021      3.04062493 Mo
  atom       3.21490234      7.32408663      4.62970203 S
  atom       3.18321270      7.34238631      1.50556203 S
  atom       3.19106380      9.16020047      3.08099117 Mo
  atom       1.60858740     10.07377449      4.64677460 S
  atom       1.60966424     10.07456056      1.51528232 S
  atom       1.60609373     11.90106006      3.08115522 Mo
  atom       0.02890891     12.84051865      4.63045007 S
  atom       0.02890807     12.80397651      1.50524408 S
  atom      11.06127739      0.98420169      3.08144122 Mo
  atom       9.44361410      1.95973692      4.60827300 S
  atom       9.50977896      1.89519615      1.47003759 S
  atom       9.44278350      3.72919178      2.99534031 Mo
  atom       7.91519474      4.61095184      1.40929640 S
  atom       7.91497732      6.37411726      2.99523001 Mo
  atom       6.38259503      7.25981424      4.60809455 S
  atom       6.35976065      7.34939990      1.46968041 S
  atom       6.34607528      9.14828916      3.08127373 Mo
  atom       4.76754241     10.05477709      4.65714695 S
  atom       4.76839513     10.07734586      1.52107994 S
  atom       4.75843872     11.89338319      3.09875224 Mo
  atom       3.17019137     12.81913395      4.65681801 S
  atom       3.19001111     12.80862218      1.52158538 S
  atom      14.22110421      0.97108544      3.10466251 Mo
  atom      12.62930388      1.88989984      4.66085566 S
  atom      12.65177847      1.87690893      1.52560435 S
  atom      12.62932111      3.70069951      3.08142406 Mo
  atom      10.97544328      4.61348961      4.60825502 S
  atom      11.06441260      4.58847749      1.47001902 S
  atom      11.03850147      6.41442628      3.04082604 Mo
  atom       9.44688092      7.25969728      4.60805216 S
  atom       9.46989025      7.34951296      1.47003440 S
  atom       9.48215242      9.14887083      3.08146203 Mo
  atom       7.91391055     10.05310090      4.66149386 S
  atom       7.91406928     10.07913440      1.52487453 S
  atom       7.91427585     11.89105841      3.10466452 Mo
  atom       6.33218721     12.80120162      4.67266919 S
  atom       6.33897423     12.80511965      1.53716274 S
  #
  # What follows is the current estimated Hessian matrix constructed by the BFGS algorithm.
  # This is NOT the true Hessian matrix of the system.
  # If you do not want this information here, switch it off using the "hessian_to_restart_geometry" keyword.
  #
  trust_radius             0.0217965626
  hessian_file
  
  -----------------------------------------------------------------------
  Completed first pass over input file geometry.in .
  -----------------------------------------------------------------------
  

  Basic array size parameters:
  | Number of species                 :        2
  | Number of atoms                   :       74
  | Number of lattice vectors         :        3
  | Max. basis fn. angular momentum   :        4
  | Max. atomic/ionic basis occupied n:        5
  | Max. number of basis fn. types    :        3
  | Max. radial fns per species/type  :       10
  | Max. logarithmic grid size        :     1436
  | Max. radial integration grid size :      119
  | Max. angular integration grid size:      434
  | Max. angular grid division number :        8
  | Radial grid for Hartree potential :     1436
  | Number of spin channels           :        1

------------------------------------------------------------
          Reading file control.in.
------------------------------------------------------------
  XC: Using PBE gradient-corrected functionals.
  Spin treatment: No spin polarisation.
  Charge =   0.000000E+00: Neutral system requested explicitly.
  Scalar relativistic treatment of kinetic energy: on-site free-atom approximation to ZORA.
  Geometry relaxation: Modified BFGS - TRM (trust radius method) for lattice optimization.
  Convergence accuracy for geometry relaxation: Maximum force <   0.100000E-02 eV/A.
  Found k-point grid:         2         2         1
  Number of empty states per atom:        8
  Using dipole correction.
  Using libMBD for calculating MBD and TS energies
 
  Reading configuration options for species S                   .
  | Found nuclear charge :  16.0000
  | Found atomic mass :    32.0650000000000      amu
  | Found l_max for Hartree potential  :   6
  | Found cutoff potl. onset [A], width [A], scale factor :    4.00000    2.00000    1.00000
  | Threshold for basis-dependent cutoff potential is   0.100000E-03
  | Found data for basic radial integration grid :    44 points, outermost radius =    7.000 A
  | Found multiplier for basic radial grid :   2
  | Found angular grid specification: user-specified.
  | Specified grid contains     5 separate shells.
  | Check grid settings after all constraints further below.
  | Found free-atom valence shell :  3 s   2.000
  | Found free-atom valence shell :  3 p   4.000
  | Found free-ion valence shell :  3 s   1.000
  | Found free-ion valence shell :  3 p   3.000
  | Found ionic basis function :  3 d , default cutoff radius.
  | Found hydrogenic basis function :  2 p   1.800
  | Found hydrogenic basis function :  4 f   7.000
  | Found ionic basis function :  3 s , default cutoff radius.
  | Found hydrogenic basis function :  4 d   6.200
  | Found hydrogenic basis function :  5 g  10.800
  Species S                   : Missing cutoff potential type.
  Defaulting to exp(1/x)/(1-x)^2 type cutoff potential.
  Species S : No 'logarithmic' tag. Using default grid for free atom:
  | Default logarithmic grid data [bohr] : 0.1000E-03 0.1000E+03 0.1012E+01
  | Will include ionic basis functions of  2.0-fold positive S                    ion.
  Species S : On-site basis accuracy parameter (for Gram-Schmidt orthonormalisation) not specified.
  Using default value basis_acc =  0.1000000E-03.
  Species S                   : Using default innermost maximum threshold i_radial=  2 for radial functions.
  Species S                   : Default cutoff onset for free atom density etc. : 0.40000000E+01 AA.
  Species S                   : Basic radial grid will be enhanced according to radial_multiplier =   2, to contain    89 grid points.
 
  Reading configuration options for species Mo                  .
  | Found nuclear charge :  42.0000
  | Found atomic mass :    95.9400000000000      amu
  | Found l_max for Hartree potential  :   6
  | Found cutoff potl. onset [A], width [A], scale factor :    4.00000    2.00000    1.00000
  | Threshold for basis-dependent cutoff potential is   0.100000E-03
  | Found data for basic radial integration grid :    59 points, outermost radius =    7.000 A
  | Found multiplier for basic radial grid :   2
  | Found angular grid specification: user-specified.
  | Specified grid contains     6 separate shells.
  | Check grid settings after all constraints further below.
  | Found free-atom valence shell :  5 s   1.000
  | Found free-atom valence shell :  4 p   6.000
  | Found free-atom valence shell :  4 d   5.000
  | Found free-ion valence shell :  5 s   0.000
  | Found free-ion valence shell :  4 p   6.000
  | Found free-ion valence shell :  4 d   4.000
  | Found hydrogenic basis function :  4 f   8.400
  | Found hydrogenic basis function :  3 d   2.800
  | Found ionic basis function :  5 p , default cutoff radius.
  | Found hydrogenic basis function :  5 g  12.000
  | Found ionic basis function :  5 s , default cutoff radius.
  Species Mo                  : Missing cutoff potential type.
  Defaulting to exp(1/x)/(1-x)^2 type cutoff potential.
  Species Mo: No 'logarithmic' tag. Using default grid for free atom:
  | Default logarithmic grid data [bohr] : 0.1000E-03 0.1000E+03 0.1012E+01
  | Will include ionic basis functions of  2.0-fold positive Mo                   ion.
  Species Mo: On-site basis accuracy parameter (for Gram-Schmidt orthonormalisation) not specified.
  Using default value basis_acc =  0.1000000E-03.
  Species Mo                  : Using default innermost maximum threshold i_radial=  2 for radial functions.
  Species Mo                  : Default cutoff onset for free atom density etc. : 0.40000000E+01 AA.
  Species Mo                  : Basic radial grid will be enhanced according to radial_multiplier =   2, to contain   119 grid points.
 
  Finished reading input file 'control.in'.
 
------------------------------------------------------------


------------------------------------------------------------
          Reading geometry description geometry.in.
------------------------------------------------------------
  Vacuum level in z-axis :   0.527001E+02
  Found keyword 'hessian_file', indicating that this is the continuation of a structure optimization.
  Verifying the existence of the file 'hessian.aims' on all processors
  | The smallest distance between any two atoms is         2.37148429 AA.
  | The first atom of this pair is atom number                     50 .
  | The second atom of this pair is atom number                    51 .
  | Wigner-Seitz cell of the first atom image           0     0     0 .
  | (The Wigner-Seitz cell of the second atom is 0 0 0  by definition.)

  Symmetry information by spglib:
  | Precision set to  0.1E-04
  | Number of Operations  : 1
  | Space group           : 1
  | International         : P1
  | Schoenflies           : C1^1
  Input structure read successfully.
  The structure contains       74 atoms,  and a total of       1834.000 electrons.

  Input geometry:
  | Unit cell:
  |       15.76960250        0.00000000        0.00000000
  |       -7.88732950       13.65525595        0.00000000
  |        0.00000000        0.00000000       99.30554027
  | Atomic structure:
  |       Atom                x [A]            y [A]            z [A]
  |    1: Species Mo            1.61062573        0.97054103        3.10466198
  |    2: Species S             0.03117583        1.88530311        4.67266916
  |    3: Species S             0.03117166        1.87744631        1.53714890
  |    4: Species Mo            0.03014782        3.70207498        3.09873429
  |    5: Species S            -1.56586066        4.61436268        4.65681964
  |    6: Species S            -1.54685403        4.60245241        1.52154438
  |    7: Species Mo           -1.55323022        6.42790017        3.08113243
  |    8: Species S            -3.15553685        7.32379027        4.63043523
  |    9: Species S            -3.12390131        7.34207317        1.50521526
  |   10: Species Mo           -3.13048910        9.15951835        3.08113534
  |   11: Species S            -4.70809022       10.05425704        4.65692029
  |   12: Species S            -4.70890251       10.07685729        1.52163298
  |   13: Species Mo           -4.70043401       11.89295919        3.09890951
  |   14: Species S            -6.27407247       12.80129026        4.67324192
  |   15: Species S            -6.28074113       12.80513297        1.53670259
  |   16: Species Mo            4.76938219        0.98443226        3.08146983
  |   17: Species S             3.20198831        1.89017236        4.66147967
  |   18: Species S             3.17951949        1.87699153        1.52488576
  |   19: Species Mo            3.20133420        3.70036733        3.08126194
  |   20: Species S             1.62681262        4.61381672        4.65713353
  |   21: Species S             1.60770001        4.60179071        1.52106859
  |   22: Species Mo            1.61304256        6.42636927        3.08098069
  |   23: Species S             0.03037502        7.33971980        4.64670603
  |   24: Species S             0.03023901        7.33840938        1.51532634
  |   25: Species Mo            0.02851427        9.16337035        3.08072126
  |   26: Species S            -1.54991127       10.07437938        4.64802734
  |   27: Species S            -1.55112232       10.07508427        1.51422847
  |   28: Species Mo           -1.54816053       11.90061084        3.08114617
  |   29: Species S            -3.11203839       12.81922022        4.65690105
  |   30: Species S            -3.13201333       12.80861399        1.52166582
  |   31: Species Mo            7.91565337        1.00441089        3.04084363
  |   32: Species S             6.38764302        1.95982610        4.60808674
  |   33: Species S             6.32138154        1.89499064        1.47004244
  |   34: Species Mo            6.38828381        3.72928393        2.99524315
  |   35: Species S             4.85489948        4.61321825        4.60813339
  |   36: Species S             4.76592664        4.58818433        1.46964797
  |   37: Species Mo            4.79135917        6.41407021        3.04062493
  |   38: Species S             3.21490234        7.32408663        4.62970203
  |   39: Species S             3.18321270        7.34238631        1.50556203
  |   40: Species Mo            3.19106380        9.16020047        3.08099117
  |   41: Species S             1.60858740       10.07377449        4.64677460
  |   42: Species S             1.60966424       10.07456056        1.51528232
  |   43: Species Mo            1.60609373       11.90106006        3.08115522
  |   44: Species S             0.02890891       12.84051865        4.63045007
  |   45: Species S             0.02890807       12.80397651        1.50524408
  |   46: Species Mo           11.06127739        0.98420169        3.08144122
  |   47: Species S             9.44361410        1.95973692        4.60827300
  |   48: Species S             9.50977896        1.89519615        1.47003759
  |   49: Species Mo            9.44278350        3.72919178        2.99534031
  |   50: Species S             7.91519474        4.61095184        1.40929640
  |   51: Species Mo            7.91497732        6.37411726        2.99523001
  |   52: Species S             6.38259503        7.25981424        4.60809455
  |   53: Species S             6.35976065        7.34939990        1.46968041
  |   54: Species Mo            6.34607528        9.14828916        3.08127373
  |   55: Species S             4.76754241       10.05477709        4.65714695
  |   56: Species S             4.76839513       10.07734586        1.52107994
  |   57: Species Mo            4.75843872       11.89338319        3.09875224
  |   58: Species S             3.17019137       12.81913395        4.65681801
  |   59: Species S             3.19001111       12.80862218        1.52158538
  |   60: Species Mo           14.22110421        0.97108544        3.10466251
  |   61: Species S            12.62930388        1.88989984        4.66085566
  |   62: Species S            12.65177847        1.87690893        1.52560435
  |   63: Species Mo           12.62932111        3.70069951        3.08142406
  |   64: Species S            10.97544328        4.61348961        4.60825502
  |   65: Species S            11.06441260        4.58847749        1.47001902
  |   66: Species Mo           11.03850147        6.41442628        3.04082604
  |   67: Species S             9.44688092        7.25969728        4.60805216
  |   68: Species S             9.46989025        7.34951296        1.47003440
  |   69: Species Mo            9.48215242        9.14887083        3.08146203
  |   70: Species S             7.91391055       10.05310090        4.66149386
  |   71: Species S             7.91406928       10.07913440        1.52487453
  |   72: Species Mo            7.91427585       11.89105841        3.10466452
  |   73: Species S             6.33218721       12.80120162        4.67266919
  |   74: Species S             6.33897423       12.80511965        1.53716274

  Lattice parameters for 3D lattice (in Angstroms) :    15.769602   15.769464   99.305540
  Angle(s) between unit vectors (in degrees)       :    90.000000   90.000000  120.010899


  Quantities derived from the lattice vectors:
  | Reciprocal lattice vector 1:  0.398437  0.230138  0.000000
  | Reciprocal lattice vector 2:  0.000000  0.460129  0.000000
  | Reciprocal lattice vector 3:  0.000000  0.000000  0.063271
  | Unit cell volume                               :   0.213843E+05  A^3

  Fractional coordinates:
                         L1                L2                L3
       atom_frac         0.13768350        0.07107454        0.03126373  Mo
       atom_frac         0.07103123        0.13806428        0.04705346  S
       atom_frac         0.07074319        0.13748891        0.01547898  S
       atom_frac         0.13751018        0.27110989        0.03120404  Mo
       atom_frac         0.06971725        0.33791843        0.04689386  S
       atom_frac         0.07048628        0.33704622        0.01532185  S
       atom_frac         0.13694386        0.47072718        0.03102679  Mo
       atom_frac         0.06815094        0.53633490        0.04662817  S
       atom_frac         0.07082671        0.53767379        0.01515741  S
       atom_frac         0.13697775        0.67076870        0.03102682  Mo
       atom_frac         0.06970931        0.73629210        0.04689487  S
       atom_frac         0.07048560        0.73794716        0.01532274  S
       atom_frac         0.13754221        0.87094370        0.03120581  Mo
       atom_frac         0.07102291        0.93746249        0.04705923  S
       atom_frac         0.07074078        0.93774390        0.01547449  S
       atom_frac         0.33849897        0.07209182        0.03103019  Mo
       atom_frac         0.27228076        0.13842087        0.04694078  S
       atom_frac         0.27037315        0.13745561        0.01535550  S
       atom_frac         0.33854252        0.27098484        0.03102810  Mo
       atom_frac         0.27215469        0.33787845        0.04689702  S
       atom_frac         0.27050222        0.33699776        0.01531706  S
       atom_frac         0.33767108        0.47061507        0.03102526  Mo
       atom_frac         0.27076307        0.53750144        0.04679201  S
       atom_frac         0.27070645        0.53740548        0.01525923  S
       atom_frac         0.33744116        0.67105079        0.03102265  Mo
       atom_frac         0.27071639        0.73776569        0.04680532  S
       atom_frac         0.27066541        0.73781731        0.01524818  S
       atom_frac         0.33771803        0.87150405        0.03102693  Mo
       atom_frac         0.27219415        0.93877554        0.04689468  S
       atom_frac         0.27053900        0.93799882        0.01532307  S
       atom_frac         0.53874567        0.07355489        0.03062109  Mo
       atom_frac         0.47684438        0.14352174        0.04640312  S
       atom_frac         0.47026776        0.13877372        0.01480323  S
       atom_frac         0.54169614        0.27310246        0.03016189  Mo
       atom_frac         0.47683589        0.33783462        0.04640359  S
       atom_frac         0.47027691        0.33600134        0.01479925  S
       atom_frac         0.53876763        0.46971439        0.03061889  Mo
       atom_frac         0.47213134        0.53635660        0.04662078  S
       atom_frac         0.47079208        0.53769672        0.01516091  S
       atom_frac         0.53787225        0.67081866        0.03102537  Mo
       atom_frac         0.47098455        0.73772140        0.04679270  S
       atom_frac         0.47108163        0.73777896        0.01525879  S
       atom_frac         0.53775565        0.87153695        0.03102702  Mo
       atom_frac         0.47215159        0.94033526        0.04662832  S
       atom_frac         0.47081309        0.93765921        0.01515770  S
       atom_frac         0.73747935        0.07207494        0.03102990  Mo
       atom_frac         0.67062983        0.14351521        0.04640499  S
       atom_frac         0.67246157        0.13878877        0.01480318  S
       atom_frac         0.73538818        0.27309571        0.03016287  Mo
       atom_frac         0.67081581        0.33766865        0.01419152  S
       atom_frac         0.73538268        0.46678856        0.03016176  Mo
       atom_frac         0.67065053        0.53164981        0.04640320  S
       atom_frac         0.67248384        0.53821034        0.01479958  S
       atom_frac         0.73750515        0.66994637        0.03102822  Mo
       atom_frac         0.67060797        0.73633018        0.04689715  S
       atom_frac         0.67148869        0.73798293        0.01531717  S
       atom_frac         0.73737455        0.87097475        0.03120422  Mo
       atom_frac         0.67056690        0.93876922        0.04689384  S
       atom_frac         0.67143871        0.93799942        0.01532226  S
       atom_frac         0.93737347        0.07111441        0.03126374  Mo
       atom_frac         0.87008645        0.13840091        0.04693450  S
       atom_frac         0.87103581        0.13744956        0.01536273  S
       atom_frac         0.93641293        0.27100916        0.03102973  Mo
       atom_frac         0.86496873        0.33785450        0.04640481  S
       atom_frac         0.86969442        0.33602281        0.01480299  S
       atom_frac         0.93493157        0.46974047        0.03062091  Mo
       atom_frac         0.86496223        0.53164125        0.04640277  S
       atom_frac         0.86971107        0.53821862        0.01480315  S
       atom_frac         0.93639495        0.66998897        0.03103011  Mo
       atom_frac         0.87006766        0.73620743        0.04694092  S
       atom_frac         0.87103127        0.73811391        0.01535538  S
       atom_frac         0.93741094        0.87080451        0.03126376  Mo
       atom_frac         0.87042217        0.93745600        0.04705346  S
       atom_frac         0.87099606        0.93774292        0.01547912  S

 
  Finished reading input file 'control.in'.
 

------------------------------------------------------------
          Reading geometry description geometry.in.
------------------------------------------------------------
 
  Consistency checks for stacksize environment parameter are next.
 
  | Maximum stacksize for task 0: unlimited
  | Maximum stacksize for task 1: unlimited
  | Maximum stacksize for task 2: unlimited
  | Maximum stacksize for task 3: unlimited
  | Maximum stacksize for task 4: unlimited
  | Maximum stacksize for task 5: unlimited
  | Maximum stacksize for task 6: unlimited
  | Maximum stacksize for task 7: unlimited
  | Maximum stacksize for task 8: unlimited
  | Maximum stacksize for task 9: unlimited
  | Maximum stacksize for task 10: unlimited
  | Maximum stacksize for task 11: unlimited
  | Maximum stacksize for task 12: unlimited
  | Maximum stacksize for task 13: unlimited
  | Maximum stacksize for task 14: unlimited
  | Maximum stacksize for task 15: unlimited
  | Maximum stacksize for task 16: unlimited
  | Maximum stacksize for task 17: unlimited
  | Maximum stacksize for task 18: unlimited
  | Maximum stacksize for task 19: unlimited
  | Maximum stacksize for task 20: unlimited
  | Maximum stacksize for task 21: unlimited
  | Maximum stacksize for task 22: unlimited
  | Maximum stacksize for task 23: unlimited
  | Maximum stacksize for task 24: unlimited
  | Maximum stacksize for task 25: unlimited
  | Maximum stacksize for task 26: unlimited
  | Maximum stacksize for task 27: unlimited
  | Maximum stacksize for task 28: unlimited
  | Maximum stacksize for task 29: unlimited
  | Maximum stacksize for task 30: unlimited
  | Maximum stacksize for task 31: unlimited
  | Maximum stacksize for task 32: unlimited
  | Maximum stacksize for task 33: unlimited
  | Maximum stacksize for task 34: unlimited
  | Maximum stacksize for task 35: unlimited
  | Maximum stacksize for task 36: unlimited
  | Maximum stacksize for task 37: unlimited
  | Maximum stacksize for task 38: unlimited
  | Maximum stacksize for task 39: unlimited
  | Maximum stacksize for task 40: unlimited
  | Maximum stacksize for task 41: unlimited
  | Maximum stacksize for task 42: unlimited
  | Maximum stacksize for task 43: unlimited
  | Maximum stacksize for task 44: unlimited
  | Maximum stacksize for task 45: unlimited
  | Maximum stacksize for task 46: unlimited
  | Maximum stacksize for task 47: unlimited
  | Maximum stacksize for task 48: unlimited
  | Maximum stacksize for task 49: unlimited
  | Maximum stacksize for task 50: unlimited
  | Maximum stacksize for task 51: unlimited
  | Maximum stacksize for task 52: unlimited
  | Maximum stacksize for task 53: unlimited
  | Maximum stacksize for task 54: unlimited
  | Maximum stacksize for task 55: unlimited
  | Maximum stacksize for task 56: unlimited
  | Maximum stacksize for task 57: unlimited
  | Maximum stacksize for task 58: unlimited
  | Maximum stacksize for task 59: unlimited
  | Maximum stacksize for task 60: unlimited
  | Maximum stacksize for task 61: unlimited
  | Maximum stacksize for task 62: unlimited
  | Maximum stacksize for task 63: unlimited
  | Maximum stacksize for task 64: unlimited
  | Maximum stacksize for task 65: unlimited
  | Maximum stacksize for task 66: unlimited
  | Maximum stacksize for task 67: unlimited
  | Maximum stacksize for task 68: unlimited
  | Maximum stacksize for task 69: unlimited
  | Maximum stacksize for task 70: unlimited
  | Maximum stacksize for task 71: unlimited
  | Maximum stacksize for task 72: unlimited
  | Maximum stacksize for task 73: unlimited
  | Maximum stacksize for task 74: unlimited
  | Maximum stacksize for task 75: unlimited
  | Maximum stacksize for task 76: unlimited
  | Maximum stacksize for task 77: unlimited
  | Maximum stacksize for task 78: unlimited
  | Maximum stacksize for task 79: unlimited
  | Maximum stacksize for task 80: unlimited
  | Maximum stacksize for task 81: unlimited
  | Maximum stacksize for task 82: unlimited
  | Maximum stacksize for task 83: unlimited
  | Maximum stacksize for task 84: unlimited
  | Maximum stacksize for task 85: unlimited
  | Maximum stacksize for task 86: unlimited
  | Maximum stacksize for task 87: unlimited
  | Maximum stacksize for task 88: unlimited
  | Maximum stacksize for task 89: unlimited
  | Maximum stacksize for task 90: unlimited
  | Maximum stacksize for task 91: unlimited
  | Maximum stacksize for task 92: unlimited
  | Maximum stacksize for task 93: unlimited
  | Maximum stacksize for task 94: unlimited
  | Maximum stacksize for task 95: unlimited
  | Maximum stacksize for task 96: unlimited
  | Maximum stacksize for task 97: unlimited
  | Maximum stacksize for task 98: unlimited
  | Maximum stacksize for task 99: unlimited
  | Maximum stacksize for task 100: unlimited
  | Maximum stacksize for task 101: unlimited
  | Maximum stacksize for task 102: unlimited
  | Maximum stacksize for task 103: unlimited
  | Maximum stacksize for task 104: unlimited
  | Maximum stacksize for task 105: unlimited
  | Maximum stacksize for task 106: unlimited
  | Maximum stacksize for task 107: unlimited
  | Maximum stacksize for task 108: unlimited
  | Maximum stacksize for task 109: unlimited
  | Maximum stacksize for task 110: unlimited
  | Maximum stacksize for task 111: unlimited
  | Maximum stacksize for task 112: unlimited
  | Maximum stacksize for task 113: unlimited
  | Maximum stacksize for task 114: unlimited
  | Maximum stacksize for task 115: unlimited
  | Maximum stacksize for task 116: unlimited
  | Maximum stacksize for task 117: unlimited
  | Maximum stacksize for task 118: unlimited
  | Maximum stacksize for task 119: unlimited
  | Maximum stacksize for task 120: unlimited
  | Maximum stacksize for task 121: unlimited
  | Maximum stacksize for task 122: unlimited
  | Maximum stacksize for task 123: unlimited
  | Maximum stacksize for task 124: unlimited
  | Maximum stacksize for task 125: unlimited
  | Maximum stacksize for task 126: unlimited
  | Maximum stacksize for task 127: unlimited
  | Maximum stacksize for task 128: unlimited
  | Maximum stacksize for task 129: unlimited
  | Maximum stacksize for task 130: unlimited
  | Maximum stacksize for task 131: unlimited
  | Maximum stacksize for task 132: unlimited
  | Maximum stacksize for task 133: unlimited
  | Maximum stacksize for task 134: unlimited
  | Maximum stacksize for task 135: unlimited
  | Maximum stacksize for task 136: unlimited
  | Maximum stacksize for task 137: unlimited
  | Maximum stacksize for task 138: unlimited
  | Maximum stacksize for task 139: unlimited
  | Maximum stacksize for task 140: unlimited
  | Maximum stacksize for task 141: unlimited
  | Maximum stacksize for task 142: unlimited
  | Maximum stacksize for task 143: unlimited
  | Maximum stacksize for task 144: unlimited
  | Maximum stacksize for task 145: unlimited
  | Maximum stacksize for task 146: unlimited
  | Maximum stacksize for task 147: unlimited
  | Maximum stacksize for task 148: unlimited
  | Maximum stacksize for task 149: unlimited
  | Maximum stacksize for task 150: unlimited
  | Maximum stacksize for task 151: unlimited
  | Maximum stacksize for task 152: unlimited
  | Maximum stacksize for task 153: unlimited
  | Maximum stacksize for task 154: unlimited
  | Maximum stacksize for task 155: unlimited
  | Maximum stacksize for task 156: unlimited
  | Maximum stacksize for task 157: unlimited
  | Maximum stacksize for task 158: unlimited
  | Maximum stacksize for task 159: unlimited
  | Current stacksize for task 0: unlimited
  | Current stacksize for task 1: unlimited
  | Current stacksize for task 2: unlimited
  | Current stacksize for task 3: unlimited
  | Current stacksize for task 4: unlimited
  | Current stacksize for task 5: unlimited
  | Current stacksize for task 6: unlimited
  | Current stacksize for task 7: unlimited
  | Current stacksize for task 8: unlimited
  | Current stacksize for task 9: unlimited
  | Current stacksize for task 10: unlimited
  | Current stacksize for task 11: unlimited
  | Current stacksize for task 12: unlimited
  | Current stacksize for task 13: unlimited
  | Current stacksize for task 14: unlimited
  | Current stacksize for task 15: unlimited
  | Current stacksize for task 16: unlimited
  | Current stacksize for task 17: unlimited
  | Current stacksize for task 18: unlimited
  | Current stacksize for task 19: unlimited
  | Current stacksize for task 20: unlimited
  | Current stacksize for task 21: unlimited
  | Current stacksize for task 22: unlimited
  | Current stacksize for task 23: unlimited
  | Current stacksize for task 24: unlimited
  | Current stacksize for task 25: unlimited
  | Current stacksize for task 26: unlimited
  | Current stacksize for task 27: unlimited
  | Current stacksize for task 28: unlimited
  | Current stacksize for task 29: unlimited
  | Current stacksize for task 30: unlimited
  | Current stacksize for task 31: unlimited
  | Current stacksize for task 32: unlimited
  | Current stacksize for task 33: unlimited
  | Current stacksize for task 34: unlimited
  | Current stacksize for task 35: unlimited
  | Current stacksize for task 36: unlimited
  | Current stacksize for task 37: unlimited
  | Current stacksize for task 38: unlimited
  | Current stacksize for task 39: unlimited
  | Current stacksize for task 40: unlimited
  | Current stacksize for task 41: unlimited
  | Current stacksize for task 42: unlimited
  | Current stacksize for task 43: unlimited
  | Current stacksize for task 44: unlimited
  | Current stacksize for task 45: unlimited
  | Current stacksize for task 46: unlimited
  | Current stacksize for task 47: unlimited
  | Current stacksize for task 48: unlimited
  | Current stacksize for task 49: unlimited
  | Current stacksize for task 50: unlimited
  | Current stacksize for task 51: unlimited
  | Current stacksize for task 52: unlimited
  | Current stacksize for task 53: unlimited
  | Current stacksize for task 54: unlimited
  | Current stacksize for task 55: unlimited
  | Current stacksize for task 56: unlimited
  | Current stacksize for task 57: unlimited
  | Current stacksize for task 58: unlimited
  | Current stacksize for task 59: unlimited
  | Current stacksize for task 60: unlimited
  | Current stacksize for task 61: unlimited
  | Current stacksize for task 62: unlimited
  | Current stacksize for task 63: unlimited
  | Current stacksize for task 64: unlimited
  | Current stacksize for task 65: unlimited
  | Current stacksize for task 66: unlimited
  | Current stacksize for task 67: unlimited
  | Current stacksize for task 68: unlimited
  | Current stacksize for task 69: unlimited
  | Current stacksize for task 70: unlimited
  | Current stacksize for task 71: unlimited
  | Current stacksize for task 72: unlimited
  | Current stacksize for task 73: unlimited
  | Current stacksize for task 74: unlimited
  | Current stacksize for task 75: unlimited
  | Current stacksize for task 76: unlimited
  | Current stacksize for task 77: unlimited
  | Current stacksize for task 78: unlimited
  | Current stacksize for task 79: unlimited
  | Current stacksize for task 80: unlimited
  | Current stacksize for task 81: unlimited
  | Current stacksize for task 82: unlimited
  | Current stacksize for task 83: unlimited
  | Current stacksize for task 84: unlimited
  | Current stacksize for task 85: unlimited
  | Current stacksize for task 86: unlimited
  | Current stacksize for task 87: unlimited
  | Current stacksize for task 88: unlimited
  | Current stacksize for task 89: unlimited
  | Current stacksize for task 90: unlimited
  | Current stacksize for task 91: unlimited
  | Current stacksize for task 92: unlimited
  | Current stacksize for task 93: unlimited
  | Current stacksize for task 94: unlimited
  | Current stacksize for task 95: unlimited
  | Current stacksize for task 96: unlimited
  | Current stacksize for task 97: unlimited
  | Current stacksize for task 98: unlimited
  | Current stacksize for task 99: unlimited
  | Current stacksize for task 100: unlimited
  | Current stacksize for task 101: unlimited
  | Current stacksize for task 102: unlimited
  | Current stacksize for task 103: unlimited
  | Current stacksize for task 104: unlimited
  | Current stacksize for task 105: unlimited
  | Current stacksize for task 106: unlimited
  | Current stacksize for task 107: unlimited
  | Current stacksize for task 108: unlimited
  | Current stacksize for task 109: unlimited
  | Current stacksize for task 110: unlimited
  | Current stacksize for task 111: unlimited
  | Current stacksize for task 112: unlimited
  | Current stacksize for task 113: unlimited
  | Current stacksize for task 114: unlimited
  | Current stacksize for task 115: unlimited
  | Current stacksize for task 116: unlimited
  | Current stacksize for task 117: unlimited
  | Current stacksize for task 118: unlimited
  | Current stacksize for task 119: unlimited
  | Current stacksize for task 120: unlimited
  | Current stacksize for task 121: unlimited
  | Current stacksize for task 122: unlimited
  | Current stacksize for task 123: unlimited
  | Current stacksize for task 124: unlimited
  | Current stacksize for task 125: unlimited
  | Current stacksize for task 126: unlimited
  | Current stacksize for task 127: unlimited
  | Current stacksize for task 128: unlimited
  | Current stacksize for task 129: unlimited
  | Current stacksize for task 130: unlimited
  | Current stacksize for task 131: unlimited
  | Current stacksize for task 132: unlimited
  | Current stacksize for task 133: unlimited
  | Current stacksize for task 134: unlimited
  | Current stacksize for task 135: unlimited
  | Current stacksize for task 136: unlimited
  | Current stacksize for task 137: unlimited
  | Current stacksize for task 138: unlimited
  | Current stacksize for task 139: unlimited
  | Current stacksize for task 140: unlimited
  | Current stacksize for task 141: unlimited
  | Current stacksize for task 142: unlimited
  | Current stacksize for task 143: unlimited
  | Current stacksize for task 144: unlimited
  | Current stacksize for task 145: unlimited
  | Current stacksize for task 146: unlimited
  | Current stacksize for task 147: unlimited
  | Current stacksize for task 148: unlimited
  | Current stacksize for task 149: unlimited
  | Current stacksize for task 150: unlimited
  | Current stacksize for task 151: unlimited
  | Current stacksize for task 152: unlimited
  | Current stacksize for task 153: unlimited
  | Current stacksize for task 154: unlimited
  | Current stacksize for task 155: unlimited
  | Current stacksize for task 156: unlimited
  | Current stacksize for task 157: unlimited
  | Current stacksize for task 158: unlimited
  | Current stacksize for task 159: unlimited
 
  Consistency checks for the contents of control.in are next.
 
  MPI_IN_PLACE appears to work with this MPI implementation.
  | Keeping use_mpi_in_place .true. (see manual).
  Target number of points in a grid batch is not set. Defaulting to  100
  Method for grid partitioning is not set. Defaulting to parallel hash+maxmin partitioning.
  Batch size limit is not set. Defaulting to    200
  By default, will store active basis functions for each batch.
  If in need of memory, prune_basis_once .false. can be used to disable this option.
  communication_type for Hartree potential was not specified.
  Defaulting to calc_hartree .
  Defaulting to Pulay charge density mixer.
  Pulay mixer: Number of relevant iterations not set.
  Defaulting to    8 iterations.
  Pulay mixer: Number of initial linear mixing iterations not set.
  Defaulting to    0 iterations.
  Work space size for distributed Hartree potential not set.
  Defaulting to   0.200000E+03 MB.
  Mixing parameter for charge density mixing has not been set.
  Using default: charge_mix_param =     0.0500.
  The mixing parameter will be adjusted in iteration number     2 of the first full s.c.f. cycle only.
  Algorithm-dependent basis array size parameters:
  | n_max_pulay                         :        8
  Maximum number of self-consistency iterations not provided.
  Presetting  1000 iterations.
  Presetting      1001 iterations before the initial mixing cycle
  is restarted anyway using the sc_init_iter criterion / keyword.
  Presetting a factor      1.000 between actual scf density residual
  and density convergence criterion sc_accuracy_rho below which sc_init_iter
  takes no effect.
 * No s.c.f. convergence criteria (sc_accuracy_*) were provided in control.in.
 * The run will proceed with a reasonable default guess, but please check whether.
 * the s.c.f. cycles seem to take too much or too little time.
  No maximum number of relaxation steps, defaulting to     1000
  Using explicit Hessian from geometry.in.
  No maximum energy tolerance for TRM/BFGS moves, defaulting to   0.100000E-02
  Maximum energy tolerance by which TRM/BFGS trajectory may increase over multiple steps:   0.300000E-02
  No harmonic length scale. Defaulting to   0.250000E-01 A.
  No trust radius initializer. Defaulting to   0.200000E+00 A.
  Forces evaluation will include force correction term due to incomplete self-consistency (default).
 * Notice: The s.c.f. convergence criterion sc_accuracy_rho was not provided.
 * We used to stop in this case, and ask the user to provide reasonable
 * scf convergence criteria. However, this led some users to employ criteria
 * that led to extremely long run times, e.g., for simple relaxation.
 * We now preset a default value for sc_accuracy_rho if it is not set.
 * You may still wish to check if this setting is too tight or too loose for your needs.
 * Based on n_atoms and forces and force-correction status, FHI-aims chose sc_accuracy_rho =  0.280951E-04 .
  Force calculation: scf convergence accuracy of forces not set.
  Defaulting to 'sc_accuracy_forces not_checked'.
  Handling of forces: Unphysical translation and rotation will be removed from forces.
  No accuracy limit for integral partition fn. given. Defaulting to  0.1000E-14.
  No threshold value for u(r) in integrations given. Defaulting to  0.1000E-05.
  No occupation type (smearing scheme) given. Defaulting to Gaussian broadening, width =  0.1000E-01 eV.
  The width will be adjusted in iteration number     2 of the first full s.c.f. cycle only.
  S.C.F. convergence parameters will be adjusted in iteration number     2 of the first full s.c.f. cycle only.
  No accuracy for occupation numbers given. Defaulting to  0.1000E-12.
  No threshold value for occupation numbers given. Defaulting to  0.0000E+00.
  No accuracy for fermi level given. Defaulting to  0.1000E-19.
  Maximum # of iterations to find E_F not set. Defaulting to  200.
  Preferred method for the eigenvalue solver ('KS_method') not specified in 'control.in'.
  Calling BLACS routine to test compilation state
  Since ScaLAPACK support is enabled, defaulting to ELPA (via ELSI).
  Will not use alltoall communication since running on < 1024 CPUs.
  Threshold for basis singularities not set.
  Default threshold for basis singularities:  0.1000E-04
  partition_type (choice of integration weights) for integrals was not specified.
  | Using a version of the partition function of Stratmann and coworkers ('stratmann_sparse').
  | At each grid point, the set of atoms used to build the partition table is smoothly restricted to
  | only those atoms whose free-atom density would be non-zero at that grid point.
  Partitioning for Hartree potential was not defined. Using partition_type for integrals.
  | Adjusted default value of keyword multip_moments_threshold to:       0.10000000E-11
  | This value may affect high angular momentum components of the Hartree potential in periodic systems.
  Angular momentum expansion for Kerker preconditioner not set explicitly.
  | Using default value of   0
  No explicit requirement for turning off preconditioner.
  | By default, it will be turned off when the charge convergence reaches
  | sc_accuracy_rho  =   0.280951E-04
  No special mixing parameter while Kerker preconditioner is on.
  Using default: charge_mix_param =     0.0500.
  No q(lm)/r^(l+1) cutoff set for long-range Hartree potential.
  | Using default value of  0.100000E-09 .
  | Verify using the multipole_threshold keyword.
  Defaulting to new monopole extrapolation.
  Density update method: automatic selection selected.
  Using density matrix based charge density update.
  Using density matrix based charge density update.
  Using packed matrix style: index .
  Geometry relaxation: A file "geometry.in.next_step" is written out by default after each step.
  | This file contains the geometry of the current relaxation step as well as
  | the current Hessian matrix needed to restart the relaxation algorithm.
  | If you do not want part or all of this information, use the keywords
  | "write_restart_geometry" or "hessian_to_restart_geometry" to switch the output off.
  Defaulting to use time-reversal symmetry for k-point grid.
  Charge integration errors on the 3D integration grid will be compensated
  by explicit normalization and distribution of residual charges.
  Use the "compensate_multipole_errors" flag to change this behaviour.
 
  Consistency checks for the contents of geometry.in are next.
 

  Range separation radius for Ewald summation (hartree_convergence_parameter):      5.00000000 bohr.
  Structure-dependent array size parameters: 
  | Maximum number of distinct radial functions  :       26
  | Maximum number of basis functions            :     3136
  | Number of Kohn-Sham states (occupied + empty):     1213
------------------------------------------------------------

------------------------------------------------------------
          Preparing all fixed parts of the calculation.
------------------------------------------------------------
  Determining machine precision:
    2.225073858507201E-308
  Setting up grids for atomic and cluster calculations.

  Creating wave function, potential, and density for free atoms.

  Species: S

  List of occupied orbitals and eigenvalues:
    n    l              occ      energy [Ha]    energy [eV]
    1    0           2.0000       -88.680731     -2413.1255
    2    0           2.0000        -7.781719      -211.7513
    3    0           2.0000        -0.633662       -17.2428
    2    1           6.0000        -5.751976      -156.5192
    3    1           4.0000        -0.257086        -6.9957


  Species: Mo

  List of occupied orbitals and eigenvalues:
    n    l              occ      energy [Ha]    energy [eV]
    1    0           2.0000      -745.344654    -20281.8600
    2    0           2.0000      -103.288246     -2810.6162
    3    0           2.0000       -17.516687      -476.6533
    4    0           2.0000        -2.358559       -64.1796
    5    0           1.0000        -0.145159        -3.9500
    2    1           6.0000       -92.308627     -2511.8455
    3    1           6.0000       -13.936005      -379.2180
    4    1           6.0000        -1.408138       -38.3174
    3    2          10.0000        -8.119011      -220.9295
    4    2           5.0000        -0.132984        -3.6187


  Adding cutoff potential to free-atom effective potential.
  Creating fixed part of basis set: Ionic, confined, hydrogenic.
 
  S                    ion:

  List of free ionic orbitals and eigenvalues:
    n    l      energy [Ha]    energy [eV]
    1    0       -89.703778     -2440.9640
    2    0        -8.775428      -238.7916
    3    0        -1.470343       -40.0101
    2    1        -6.747660      -183.6132
    3    1        -1.048627       -28.5346


  List of ionic basis orbitals and eigenvalues:
    n    l      energy [Ha]    energy [eV]    outer radius [A]
    3    2        -0.495605       -13.4861       5.386362
    3    0        -1.470336       -40.0099       3.967934

 
  S                    hydrogenic:
 
  List of hydrogenic basis orbitals: 
    n    l      effective z      eigenvalue [eV]  inner max. [A]     outer max. [A]     outer radius [A]   
    2    1         1.800000       -11.0118           1.168531           1.168531           5.452614
    4    3         7.000000       -41.6672           1.212182           1.212182           5.066981
    4    2         6.200000       -32.6848           0.582121           1.814567           5.386362
    5    4        10.800000       -63.4785           1.227092           1.227092           4.766538
 
 
  Mo                   ion:

  List of free ionic orbitals and eigenvalues:
    n    l      energy [Ha]    energy [eV]
    1    0      -746.048685    -20301.0176
    2    0      -103.980912     -2829.4646
    3    0       -18.206601      -495.4268
    4    0        -3.040545       -82.7374
    2    1       -93.001013     -2530.6863
    3    1       -14.625827      -397.9890
    4    1        -2.084855       -56.7318
    3    2        -8.808854      -239.7011
    4    2        -0.765435       -20.8285


  List of ionic basis orbitals and eigenvalues:
    n    l      energy [Ha]    energy [eV]    outer radius [A]
    5    1        -0.465587       -12.6693       5.456393
    5    0        -0.650331       -17.6964       5.390095

 
  Mo                   hydrogenic:
 
  List of hydrogenic basis orbitals: 
    n    l      effective z      eigenvalue [eV]  inner max. [A]     outer max. [A]     outer radius [A]   
    4    3         8.400000       -60.0010           1.009788           1.009788           4.487018
    3    2         2.800000       -11.8048           1.687401           1.687401           5.456393
    5    4        12.000000       -78.3687           1.100005           1.100005           4.432498
 
  Creating atomic-like basis functions for current effective potential.

  Species S                   :

  List of atomic basis orbitals and eigenvalues:
    n    l      energy [Ha]    energy [eV]    outer radius [A]
    1    0       -88.680731     -2413.1255       0.682391
    2    0        -7.781719      -211.7513       2.289014
    3    0        -0.633662       -17.2428       5.256262
    2    1        -5.751976      -156.5192       2.555240
    3    1        -0.257086        -6.9957       5.386362


  Species Mo                  :

  List of atomic basis orbitals and eigenvalues:
    n    l      energy [Ha]    energy [eV]    outer radius [A]
    1    0      -745.344654    -20281.8600       0.247552
    2    0      -103.288246     -2810.6162       0.682864
    3    0       -17.516687      -476.6533       1.626637
    4    0        -2.358559       -64.1796       4.220963
    5    0        -0.145159        -3.9500       5.456393
    2    1       -92.308627     -2511.8455       0.699766
    3    1       -13.936005      -379.2180       1.793761
    4    1        -1.408138       -38.3174       4.828511
    3    2        -8.119011      -220.9295       2.181285
    4    2        -0.132984        -3.6187       5.390095

  Assembling full basis from fixed parts.
  | Species S :   atomic orbital   1 s accepted.
  | Species S :   atomic orbital   2 s accepted.
  | Species S :    ionic orbital   3 s accepted.
  | Species S :   atomic orbital   3 s accepted.
  | Species S :   atomic orbital   2 p accepted.
  | Species S :   atomic orbital   3 p accepted.
  | Species S :    hydro orbital   2 p accepted.
  | Species S :    ionic orbital   3 d accepted.
  | Species S :    hydro orbital   4 d accepted.
  | Species S :    hydro orbital   4 f accepted.
  | Species S :    hydro orbital   5 g accepted.
  | Species Mo :   atomic orbital   1 s accepted.
  | Species Mo :   atomic orbital   2 s accepted.
  | Species Mo :   atomic orbital   3 s accepted.
  | Species Mo :   atomic orbital   4 s accepted.
  | Species Mo :    ionic orbital   5 s accepted.
  | Species Mo :   atomic orbital   5 s accepted.
  | Species Mo :   atomic orbital   2 p accepted.
  | Species Mo :   atomic orbital   3 p accepted.
  | Species Mo :   atomic orbital   4 p accepted.
  | Species Mo :    ionic orbital   5 p accepted.
  | Species Mo :   atomic orbital   3 d accepted.
  | Species Mo :   atomic orbital   4 d accepted.
  | Species Mo :    hydro orbital   3 d accepted.
  | Species Mo :    hydro orbital   4 f accepted.
  | Species Mo :    hydro orbital   5 g accepted.
 
  Basis size parameters after reduction:
  | Total number of radial functions:       26
  | Total number of basis functions :     3136
 
  Per-task memory consumption for arrays in subroutine allocate_ext:
  |           9.630648MB.
  Testing on-site integration grid accuracy.
  |  Species  Function  <phi|h_atom|phi> (log., in eV)  <phi|h_atom|phi> (rad., in eV)
           1        1              -2413.1254568977              -2413.1254096663
           1        2               -211.7513411281               -211.7513404762
           1        3                -16.9725280787                -16.9725279206
           1        4                  7.6024436204                  7.6024549059
           1        5               -156.5192206929               -156.5192205451
           1        6                 -6.9959757887                 -6.9959777655
           1        7                  6.8896462808                  6.8895564741
           1        8                  6.0214250550                  6.0214220200
           1        9                 19.6206468977                 19.6206494558
           1       10                 24.7008710786                 24.7008710738
           1       11                 47.5292252001                 47.5292260486
           2       12             -20281.8599610543             -20281.8584300616
           2       13              -2810.6161812280              -2810.6161551921
           2       14               -476.6533163555               -476.6533136395
           2       15                -64.1796433667                -64.1796426456
           2       16                 -3.3691762756                 -3.3691802887
           2       17                  4.4704608512                  4.4699102345
           2       18              -2511.8455406047              -2511.8455385741
           2       19               -379.2179896350               -379.2179882338
           2       20                -38.3173891619                -38.3173886619
           2       21                  0.2493245095                  0.2492931069
           2       22               -220.9295301098               -220.9295297081
           2       23                 -3.6195697699                 -3.6195754704
           2       24                  7.1428000922                  7.1426882355
           2       25                 23.3975871087                 23.3975871819
           2       26                 50.2449608881                 50.2449608586

  Preparing densities etc. for the partition functions (integrals / Hartree potential).
 Frequency grid relative error: 0.12418110983958286E-009                        
   
 Will use parallel mode: atoms     
 BLACS block size: 12                                                

  Preparations completed.
  max(cpu_time)          :      0.513 s.
  Wall clock time (cpu1) :      0.485 s.
------------------------------------------------------------

------------------------------------------------------------
          Begin self-consistency loop: Initialization.

          Date     :  20211215, Time     :  153353.061
------------------------------------------------------------

  Initializing index lists of integration centers etc. from given atomic structure:
  Mapping all atomic coordinates to central unit cell.

  Initializing the k-points
  Using symmetry for reducing the k-points
  | k-points reduced from:        4 to        4
  | Number of k-points                             :         4
  The eigenvectors in the calculations are REAL.
  | Number of basis functions in the Hamiltonian integrals :      8400
  | Number of basis functions in a single unit cell        :      3136
  | Number of centers in hartree potential         :       773
  | Number of centers in hartree multipole         :       489
  | Number of centers in electron density summation:       425
  | Number of centers in basis integrals           :       443
  | Number of centers in integrals                 :       262
  | Number of centers in hamiltonian               :       427
  | Consuming          0 KiB for k_phase.
  | Number of super-cells (origin) [n_cells]                     :          75
  | Number of super-cells (after PM_index) [n_cells]             :          10
  | Number of super-cells in hamiltonian [n_cells_in_hamiltonian]:          10
  | Size of matrix packed + index [n_hamiltonian_matrix_size] :     6070436

  Initializing relaxation algorithms.
  Finished initialization of distributed Hessian storage.
  | Global dimension:       222
  | BLACS block size:         2
  | Number of workers:      111

  Reading estimated Hessian matrix from file 'hessian.aims'
  | Estimated reciprocal-space cutoff momentum G_max:         1.90186217 bohr^-1 .
  | Reciprocal lattice points for long-range Hartree potential:   16626
  Using simple linear distribution as default method for k-point parallelism.
  * Using 160 tasks for Scalapack Eigenvalue solver.
  Detailed listing of tasks and assigned k-points:
   Task     0 k-point     1 on co3617
   Task     1 k-point     1 on co3617
   Task     2 k-point     1 on co3617
   Task     3 k-point     1 on co3617
   Task     4 k-point     1 on co3617
   Task     5 k-point     1 on co3617
   Task     6 k-point     1 on co3617
   Task     7 k-point     1 on co3617
   Task     8 k-point     1 on co3617
   Task     9 k-point     1 on co3617
   Task    10 k-point     1 on co3617
   Task    11 k-point     1 on co3617
   Task    12 k-point     1 on co3617
   Task    13 k-point     1 on co3617
   Task    14 k-point     1 on co3617
   Task    15 k-point     1 on co3617
   Task    16 k-point     1 on co3617
   Task    17 k-point     1 on co3617
   Task    18 k-point     1 on co3617
   Task    19 k-point     1 on co3617
   Task    20 k-point     1 on co3617
   Task    21 k-point     1 on co3617
   Task    22 k-point     1 on co3617
   Task    23 k-point     1 on co3617
   Task    24 k-point     1 on co3617
   Task    25 k-point     1 on co3617
   Task    26 k-point     1 on co3617
   Task    27 k-point     1 on co3617
   Task    28 k-point     1 on co3617
   Task    29 k-point     1 on co3617
   Task    30 k-point     1 on co3617
   Task    31 k-point     1 on co3617
   Task    32 k-point     1 on co3617
   Task    33 k-point     1 on co3617
   Task    34 k-point     1 on co3617
   Task    35 k-point     1 on co3617
   Task    36 k-point     1 on co3617
   Task    37 k-point     1 on co3617
   Task    38 k-point     1 on co3617
   Task    39 k-point     1 on co3617
   Task    40 k-point     2 on co3618
   Task    41 k-point     2 on co3618
   Task    42 k-point     2 on co3618
   Task    43 k-point     2 on co3618
   Task    44 k-point     2 on co3618
   Task    45 k-point     2 on co3618
   Task    46 k-point     2 on co3618
   Task    47 k-point     2 on co3618
   Task    48 k-point     2 on co3618
   Task    49 k-point     2 on co3618
   Task    50 k-point     2 on co3618
   Task    51 k-point     2 on co3618
   Task    52 k-point     2 on co3618
   Task    53 k-point     2 on co3618
   Task    54 k-point     2 on co3618
   Task    55 k-point     2 on co3618
   Task    56 k-point     2 on co3618
   Task    57 k-point     2 on co3618
   Task    58 k-point     2 on co3618
   Task    59 k-point     2 on co3618
   Task    60 k-point     2 on co3618
   Task    61 k-point     2 on co3618
   Task    62 k-point     2 on co3618
   Task    63 k-point     2 on co3618
   Task    64 k-point     2 on co3618
   Task    65 k-point     2 on co3618
   Task    66 k-point     2 on co3618
   Task    67 k-point     2 on co3618
   Task    68 k-point     2 on co3618
   Task    69 k-point     2 on co3618
   Task    70 k-point     2 on co3618
   Task    71 k-point     2 on co3618
   Task    72 k-point     2 on co3618
   Task    73 k-point     2 on co3618
   Task    74 k-point     2 on co3618
   Task    75 k-point     2 on co3618
   Task    76 k-point     2 on co3618
   Task    77 k-point     2 on co3618
   Task    78 k-point     2 on co3618
   Task    79 k-point     2 on co3618
   Task    80 k-point     3 on co3622
   Task    81 k-point     3 on co3622
   Task    82 k-point     3 on co3622
   Task    83 k-point     3 on co3622
   Task    84 k-point     3 on co3622
   Task    85 k-point     3 on co3622
   Task    86 k-point     3 on co3622
   Task    87 k-point     3 on co3622
   Task    88 k-point     3 on co3622
   Task    89 k-point     3 on co3622
   Task    90 k-point     3 on co3622
   Task    91 k-point     3 on co3622
   Task    92 k-point     3 on co3622
   Task    93 k-point     3 on co3622
   Task    94 k-point     3 on co3622
   Task    95 k-point     3 on co3622
   Task    96 k-point     3 on co3622
   Task    97 k-point     3 on co3622
   Task    98 k-point     3 on co3622
   Task    99 k-point     3 on co3622
   Task   100 k-point     3 on co3622
   Task   101 k-point     3 on co3622
   Task   102 k-point     3 on co3622
   Task   103 k-point     3 on co3622
   Task   104 k-point     3 on co3622
   Task   105 k-point     3 on co3622
   Task   106 k-point     3 on co3622
   Task   107 k-point     3 on co3622
   Task   108 k-point     3 on co3622
   Task   109 k-point     3 on co3622
   Task   110 k-point     3 on co3622
   Task   111 k-point     3 on co3622
   Task   112 k-point     3 on co3622
   Task   113 k-point     3 on co3622
   Task   114 k-point     3 on co3622
   Task   115 k-point     3 on co3622
   Task   116 k-point     3 on co3622
   Task   117 k-point     3 on co3622
   Task   118 k-point     3 on co3622
   Task   119 k-point     3 on co3622
   Task   120 k-point     4 on co3624
   Task   121 k-point     4 on co3624
   Task   122 k-point     4 on co3624
   Task   123 k-point     4 on co3624
   Task   124 k-point     4 on co3624
   Task   125 k-point     4 on co3624
[...]
  X and C from original XC functional choice 
  Hartree-Fock Energy :          0.000000000 Ha              0.000000000 eV
  X Energy            :      -4277.854244545 Ha        -116406.336683267 eV
  C Energy            :        -86.383949879 Ha          -2350.626874781 eV
  Total XC Energy     :      -4364.238194424 Ha        -118756.963558048 eV
  ------------------------------------ 
  LDA X and C from self-consistent density 
  X Energy LDA        :      -4040.956845360 Ha        -109960.030466997 eV
  C Energy LDA        :       -158.986257556 Ha          -4326.236184579 eV
  ------------------------------------ 
  End decomposition of the XC Energy 
  ------------------------------------ 

------------------------------------------------------------
  Relaxation / MD: End force evaluation.       :  max(cpu_time)    wall_clock(cpu1)
  | Time for this force evaluation             :      112.663 s         112.750 s

------------------------------------------------------------
  Geometry optimization: Attempting to predict improved coordinates.

  Removing unitary transformations (pure translations, rotations) from forces on atoms.
  Atomic forces before filtering:
  | Net force on center of mass :  -0.108890E-18 -0.172047E-17 -0.479118E-18 eV/A
  Atomic forces after filtering:
  | Net force on center of mass :  -0.108890E-18 -0.347088E-19 -0.479118E-18 eV/A
  Net remaining forces (excluding translations, rotations) in present geometry:
  || Forces on atoms   || =   0.923020E-03 eV/A.
  Maximum force component is  0.923020E-03 eV/A.
  Present geometry is converged.

------------------------------------------------------------
  Final atomic structure:
                         x [A]             y [A]             z [A]
  lattice_vector        15.76960250        0.00000000        0.00000000
  lattice_vector        -7.88732950       13.65525595        0.00000000
  lattice_vector         0.00000000        0.00000000       99.30554027

            atom         1.61088948        0.97126663        3.10497176  Mo
            atom         0.03094975        1.88501788        4.67320099  S
            atom         0.03095002        1.87716404        1.53738016  S
            atom         0.03055626        3.70184010        3.09912070  Mo
            atom        -1.56595632        4.61413062        4.65676578  S
            atom        -1.54655953        4.60216071        1.52191799  S
            atom        -1.55357534        6.42746293        3.08129098  Mo
            atom        -3.15544679        7.32384173        4.63112636  S
            atom        -3.12321792        7.34246402        1.50440142  S
            atom        -3.13140268        9.15914210        3.08130151  Mo
            atom        -4.70844593       10.05459770        4.65680692  S
            atom        -4.70909582       10.07742492        1.52191230  S
            atom        -4.70082726       11.89318706        3.09916139  Mo
            atom        -6.27447559       12.80153672        4.67321756  S
            atom        -6.28124465       12.80543616        1.53739361  S
            atom         4.77103053        0.98473831        3.08134034  Mo
            atom         3.20233188        1.88998106        4.66114342  S
            atom         3.17948736        1.87673342        1.52534046  S
            atom         3.20216280        3.70096381        3.08129014  Mo
            atom         1.62686998        4.61411806        4.65675347  S
            atom         1.60743242        4.60215390        1.52188313  S
            atom         1.61360883        6.42742464        3.08127871  Mo
            atom         0.02994141        7.33937823        4.64706267  S
            atom         0.02992818        7.33815560        1.51554515  S
            atom         0.02946770        9.16276173        3.08103121  Mo
            atom        -1.54982672       10.07435573        4.64708189  S
            atom        -1.55090458       10.07498192        1.51555815  S
            atom        -1.54834063       11.90163639        3.08131027  Mo
            atom        -3.11252327       12.81936513        4.65681283  S
            atom        -3.13261564       12.80850410        1.52191783  S
            atom         7.91580450        1.00302485        3.04033354  Mo
            atom         6.38840635        1.96022791        4.60799388  S
            atom         6.32180947        1.89526333        1.46917738  S
            atom         6.38798949        3.72928953        2.99471131  Mo
            atom         4.85562712        4.61375576        4.60791465  S
            atom         4.76622937        4.58853009        1.46916977  S
            atom         4.78989965        6.41495019        3.04029754  Mo
            atom         3.21533843        7.32381312        4.63111389  S
            atom         3.18308297        7.34244123        1.50438528  S
            atom         3.19045483        9.15913217        3.08129075  Mo
            atom         1.60865131       10.07432996        4.64706707  S
            atom         1.60971464       10.07496365        1.51556381  S
            atom         1.60632125       11.90165031        3.08131202  Mo
            atom         0.02889958       12.84039343        4.63114185  S
            atom         0.02890185       12.80316728        1.50442695  S
            atom        11.06060159        0.98476843        3.08135645  Mo
            atom         9.44311457        1.96010497        4.60800357  S
            atom         9.50964211        1.89531431        1.46926249  S
            atom         9.44263834        3.72928168        2.99483531  Mo
            atom         7.91528783        4.61090296        1.40860561  S
            atom         7.91481520        6.37439477        2.99469629  Mo
            atom         6.38250812        7.25890886        4.60790847  S
            atom         6.35962865        7.34895945        1.46917168  S
            atom         6.34594935        9.14725272        3.08130087  Mo
            atom         4.76730272       10.05459327        4.65676159  S
            atom         4.76793846       10.07741143        1.52190142  S
            atom         4.75888287       11.89317373        3.09913816  Mo
            atom         3.17036289       12.81932539        4.65678054  S
            atom         3.19043080       12.80850593        1.52194124  S
            atom        14.22078164        0.97126431        3.10497465  Mo
            atom        12.62919361        1.88995895        4.66117026  S
            atom        12.65203561        1.87675706        1.52535146  S
            atom        12.62847910        3.70097922        3.08134035  Mo
            atom        10.97487551        4.61373969        4.60798756  S
            atom        11.06424490        4.58853864        1.46924576  S
            atom        11.03976156        6.41498302        3.04031707  Mo
            atom         9.44691131        7.25882447        4.60797022  S
            atom         9.46986319        7.34899781        1.46916404  S
            atom         9.48270739        9.14727465        3.08133507  Mo
            atom         7.91423203       10.05289330        4.66114709  S
            atom         7.91426304       10.07928522        1.52534293  S
            atom         7.91381068       11.89045767        3.10497517  Mo
            atom         6.33233516       12.80153874        4.67320964  S
            atom         6.33912302       12.80545121        1.53738624  S

  Fractional coordinates:
                         L1                L2                L3
       atom_frac         0.13772680        0.07112768        0.03126685  Mo
       atom_frac         0.07100645        0.13804339        0.04705881  S
       atom_frac         0.07071880        0.13746824        0.01548131  S
       atom_frac         0.13752748        0.27109269        0.03120793  Mo
       atom_frac         0.06970269        0.33790144        0.04689331  S
       atom_frac         0.07049427        0.33702486        0.01532561  S
       atom_frac         0.13690596        0.47069516        0.03102839  Mo
       atom_frac         0.06815853        0.53633866        0.04663513  S
       atom_frac         0.07088436        0.53770241        0.01514922  S
       atom_frac         0.13690604        0.67074115        0.03102850  Mo
       atom_frac         0.06969923        0.73631704        0.04689373  S
       atom_frac         0.07049413        0.73798872        0.01532555  S
       atom_frac         0.13752562        0.87096039        0.03120834  Mo
       atom_frac         0.07100638        0.93748054        0.04705898  S
       atom_frac         0.07071996        0.93776610        0.01548145  S
       atom_frac         0.33861470        0.07211423        0.03102889  Mo
       atom_frac         0.27229554        0.13840686        0.04693740  S
       atom_frac         0.27036166        0.13743671        0.01536007  S
       atom_frac         0.33861691        0.27102852        0.03102838  Mo
       atom_frac         0.27216937        0.33790052        0.04689319  S
       atom_frac         0.27049855        0.33702436        0.01532526  S
       atom_frac         0.33774564        0.47069236        0.03102827  Mo
       atom_frac         0.27072307        0.53747643        0.04679560  S
       atom_frac         0.27067744        0.53738690        0.01526144  S
       atom_frac         0.33747933        0.67100622        0.03102577  Mo
       atom_frac         0.27072088        0.73776396        0.04679580  S
       atom_frac         0.27067547        0.73780982        0.01526157  S
       atom_frac         0.33774417        0.87157915        0.03102858  Mo
       atom_frac         0.27216871        0.93878615        0.04689379  S
       atom_frac         0.27049678        0.93799077        0.01532561  S
       atom_frac         0.53870449        0.07345339        0.03061595  Mo
       atom_frac         0.47690750        0.14355117        0.04640218  S
       atom_frac         0.47030488        0.13879369        0.01479452  S
       atom_frac         0.54167769        0.27310287        0.03015654  Mo
       atom_frac         0.47690172        0.33787399        0.04640139  S
       atom_frac         0.47030877        0.33602666        0.01479444  S
       atom_frac         0.53870731        0.46977883        0.03061559  Mo
       atom_frac         0.47214898        0.53633657        0.04663500  S
       atom_frac         0.47078586        0.53770074        0.01514906  S
       atom_frac         0.53779450        0.67074042        0.03102839  Mo
       atom_frac         0.47100895        0.73776207        0.04679565  S
       atom_frac         0.47109959        0.73780848        0.01526162  S
       atom_frac         0.53779169        0.87158017        0.03102860  Mo
       atom_frac         0.47214641        0.94032609        0.04663528  S
       atom_frac         0.47078305        0.93759995        0.01514948  S
       atom_frac         0.73745725        0.07211644        0.03102905  Mo
       atom_frac         0.67061163        0.14354216        0.04640228  S
       atom_frac         0.67245722        0.13879742        0.01479537  S
       atom_frac         0.73538227        0.27310229        0.03015779  Mo
       atom_frac         0.67081992        0.33766507        0.01418456  S
       atom_frac         0.73538256        0.46680888        0.03015639  Mo
       atom_frac         0.67061186        0.53158351        0.04640132  S
       atom_frac         0.67245934        0.53817808        0.01479446  S
       atom_frac         0.73745920        0.66987047        0.03102849  Mo
       atom_frac         0.67058604        0.73631672        0.04689327  S
       atom_frac         0.67146213        0.73798774        0.01532544  S
       atom_frac         0.73739505        0.87095941        0.03120811  Mo
       atom_frac         0.67058479        0.93878324        0.04689346  S
       atom_frac         0.67146107        0.93799091        0.01532584  S
       atom_frac         0.93735956        0.07112751        0.03126688  Mo
       atom_frac         0.87008162        0.13840524        0.04693767  S
       atom_frac         0.87104655        0.13743844        0.01536018  S
       atom_frac         0.93636978        0.27102965        0.03102889  Mo
       atom_frac         0.86494188        0.33787281        0.04640212  S
       atom_frac         0.86968602        0.33602729        0.01479520  S
       atom_frac         0.93503187        0.46978124        0.03061578  Mo
       atom_frac         0.86493219        0.53157733        0.04640195  S
       atom_frac         0.86969048        0.53818089        0.01479438  S
       atom_frac         0.93637168        0.66987208        0.03102883  Mo
       atom_frac         0.87008044        0.73619223        0.04693743  S
       atom_frac         0.87104908        0.73812496        0.01536010  S
       atom_frac         0.93735944        0.87076051        0.03126689  Mo
       atom_frac         0.87044390        0.93748069        0.04705890  S
       atom_frac         0.87101764        0.93776721        0.01548137  S
------------------------------------------------------------

------------------------------------------------------------------------------
  Final output of selected total energy values:

  The following output summarizes some interesting total energy values
  at the end of a run (AFTER all relaxation, molecular dynamics, etc.).

  | Total energy of the DFT / Hartree-Fock s.c.f. calculation      :       -3314051.223078844 eV
  | Final zero-broadening corrected energy (caution - metals only) :       -3314051.223078844 eV
  | For reference only, the value of 1 Hartree used in FHI-aims is :             27.211384500 eV
  | For reference only, the overall average (free atom contribution
  | + realspace contribution) of the electrostatic potential after
  | s.c.f. convergence is                                          :             -1.123624302 eV

  Before relying on these values, please be sure to understand exactly which
  total energy value is referred to by a given number. Different objects may
  all carry the same name 'total energy'. Definitions:

  Total energy of the DFT / Hartree-Fock s.c.f. calculation:
  | Note that this energy does not include ANY quantities calculated after the
  | s.c.f. cycle, in particular not ANY RPA, MP2, etc. many-body perturbation terms.

  Final zero-broadening corrected energy:
  | For metallic systems only, a broadening of the occupation numbers at the Fermi
  | level can be extrapolated back to zero broadening by an electron-gas inspired
  | formula. For all systems that are not real metals, this value can be
  | meaningless and should be avoided.

------------------------------------------------------------------------------
  Methods described in the following list of references were used in this FHI-aims run.
  If you publish the results, please make sure to cite these reference if they apply.
  FHI-aims is an academic code, and for our developers (often, Ph.D. students
  and postdocs), scientific credit in the community is essential.
  Thank you for helping us!

  For any use of FHI-aims, please cite:

    Volker Blum, Ralf Gehrke, Felix Hanke, Paula Havu, Ville Havu,
    Xinguo Ren, Karsten Reuter, and Matthias Scheffler
    'Ab initio molecular simulations with numeric atom-centered orbitals'
    Computer Physics Communications 180, 2175-2196 (2009)
    http://dx.doi.org/10.1016/j.cpc.2009.06.022


  The provided symmetry information was generated with SPGlib:

    Atsushi Togo, Yusuke Seto, Dimitar Pashov
    SPGlib 1.7.3 obtained from http://spglib.sourceforge.net
    Copyright (C) 2008 Atsushi Togo


  The ELSI infrastructure was used in your run to solve the Kohn-Sham electronic structure.
  Please check out http://elsi-interchange.org to learn more.
  If scalability is important for your project, please acknowledge ELSI by citing:

    V. W-z. Yu, F. Corsetti, A. Garcia, W. P. Huhn, M. Jacquelin, W. Jia,
    B. Lange, L. Lin, J. Lu, W. Mi, A. Seifitokaldani, A. Vazquez-Mayagoitia,
    C. Yang, H. Yang, and V. Blum
    'ELSI: A unified software interface for Kohn-Sham electronic structure solvers'
    Computer Physics Communications 222, 267-285 (2018).
    http://dx.doi.org/10.1016/j.cpc.2017.09.007


  For the real-space grid partitioning and parallelization used in this calculation, please cite:

    Ville Havu, Volker Blum, Paula Havu, and Matthias Scheffler,
    'Efficient O(N) integration for all-electron electronic structure calculation'
    'using numerically tabulated basis functions'
    Journal of Computational Physics 228, 8367-8379 (2009).
    http://dx.doi.org/10.1016/j.jcp.2009.08.008

  Of course, there are many other important community references, e.g., those cited in the
  above references. Our list is limited to references that describe implementations in the
  FHI-aims code. The reason is purely practical (length of this list) - please credit others as well.

------------------------------------------------------------
          Leaving FHI-aims.
          Date     :  20211215, Time     :  160055.105

          Computational steps:
          | Number of self-consistency cycles          :          110
          | Number of SCF (re)initializations          :           11
          | Number of relaxation steps                 :           10

          Detailed time accounting                     :  max(cpu_time)    wall_clock(cpu1)
          | Total time                                 :     1622.348 s        1623.302 s
          | Preparation time                           :        0.513 s           0.485 s
          | Boundary condition initalization           :       12.482 s          12.474 s
          | Grid partitioning                          :       13.643 s          13.600 s
          | Preloading free-atom quantities on grid    :        6.069 s           6.068 s
          | Free-atom superposition energy             :        0.742 s           0.742 s
          | Total time for integrations                :      269.150 s         269.253 s
          | Total time for solution of K.-S. equations :       53.606 s          53.644 s
          | Total time for EV reorthonormalization     :        1.248 s           1.252 s
          | Total time for density & force components  :      889.711 s         890.067 s
          | Total time for mixing & preconditioning    :       41.367 s          41.358 s
          | Total time for Hartree multipole update    :        1.239 s           1.238 s
          | Total time for Hartree multipole sum       :      221.900 s         221.963 s
          | Total time for total energy evaluation     :        0.108 s           0.052 s
          | Total time NSC force correction            :       34.421 s          34.438 s
          | Total time for scaled ZORA corrections     :        0.000 s           0.000 s
          | Total time for vdW correction              :       62.781 s          62.833 s

          Partial memory accounting:
          | Residual value for overall tracked memory usage across tasks:     0.000000 MB (should be 0.000000 MB)
          | Peak values for overall tracked memory usage:
          |   Minimum:      163.845 MB (on task 111 after allocating temp_ham_ovlp)
          |   Maximum:      164.346 MB (on task   0 after allocating temp_ham_ovlp)
          |   Average:      164.036 MB
          | Largest tracked array allocation:
          |   Minimum:       46.323 MB (hamiltonian on task   0)
          |   Maximum:       46.323 MB (hamiltonian on task   0)
          |   Average:       46.323 MB
          Note:  These values currently only include a subset of arrays which are explicitly tracked.
          The "true" memory usage will be greater.

          Have a nice day.
------------------------------------------------------------
