------------------------------------------------------------
          Invoking FHI-aims ...

          When using FHI-aims, please cite the following reference:

            Volker Blum, Ralf Gehrke, Felix Hanke, Paula Havu,
            Ville Havu, Xinguo Ren, Karsten Reuter, and Matthias Scheffler,
            'Ab Initio Molecular Simulations with Numeric Atom-Centered Orbitals',
            Computer Physics Communications 180, 2175-2196 (2009)

          In addition, many other developments in FHI-aims are likely important for
          your particular application. A partial list of references is given at the end of
          this file. Thank you for giving credit to the authors of these developments.

          For any questions about FHI-aims, please visit our slack channel at

            https://fhi-aims.slack.com

          and our main development and support site at

            https://aims-git.rz-berlin.mpg.de .

          The latter site, in particular, has a wiki to collect information, as well
          as an issue tracker to log discussions, suggest improvements, and report issues
          or bugs. https://aims-git.rz-berlin.mpg.de is also the main development site
          of the project and all new and updated code versions can be obtained there.
          Please send an email to aims-coordinators@fhi-berlin.mpg.de and we will add
          you to these sites. They are for you and everyone is welcome there.

------------------------------------------------------------



  Date     :  20221025, Time     :  105832.170
  Time zero on CPU 1             :   0.482959000000000E+00  s.
  Internal wall clock time zero  :           435927512.170  s.

  FHI-aims created a unique identifier for this run for later identification
  aims_uuid : D492C7D5-D831-4F4F-A184-C575D005961F

  Build configuration of the current instance of FHI-aims
  -------------------------------------------------------
  FHI-aims version      : 221007
  Commit number         : 23560fd05
  CMake host system     : Linux-5.3.18-150300.59.87-default
  CMake version         : 3.17.0
  Fortran compiler      : /mpcdf/soft/SLE_15/packages/x86_64/intel_oneapi/2021.3/mpi/2021.3.0/bin/mpiifort (Intel) version 20.2.3.20210609
  Fortran compiler flags: -O3 -ip -fp-model precise
  C compiler            : /mpcdf/soft/SLE_15/packages/x86_64/intel/2021.3.0/bin/icc (Intel) version 20.2.3.20210609
  C compiler flags      : -O3 -ip -fp-model precise -std=gnu99
  CUDA compiler         : /mpcdf/soft/SLE_15/packages/x86_64/cuda/11.6.2/bin/nvcc
  CUDA compiler flags   : -O3 -DAdd_ -lcublas
  HIP compiler          :
  HIP compiler flags    :
  HIP GPU arch          :
  ELPA2 kernel          : AVX512
  Using MPI
  Using ScaLAPACK
  Using LibXC
  Using CUDA
  Using i-PI
  Using RLSY
  Linking against: /mpcdf/soft/SLE_15/packages/x86_64/cuda/11.6.2/lib64/libcublas.so
                   /mpcdf/soft/SLE_15/packages/x86_64/cuda/11.6.2/lib64/libcudart.so
                   /mpcdf/soft/SLE_15/packages/x86_64/intel_oneapi/2021.3/mkl/latest/lib/intel64/libmkl_intel_lp64.so
                   /mpcdf/soft/SLE_15/packages/x86_64/intel_oneapi/2021.3/mkl/latest/lib/intel64/libmkl_sequential.so
                   /mpcdf/soft/SLE_15/packages/x86_64/intel_oneapi/2021.3/mkl/latest/lib/intel64/libmkl_core.so
                   /mpcdf/soft/SLE_15/packages/x86_64/intel_oneapi/2021.3/mkl/latest/lib/intel64/libmkl_blacs_intelmpi_lp64.so
                   /mpcdf/soft/SLE_15/packages/x86_64/intel_oneapi/2021.3/mkl/latest/lib/intel64/libmkl_scalapack_lp64.so

  Using      288 parallel tasks.
  Task        0 on host adag019 reporting.
  Task        1 on host adag019 reporting.
  Task        2 on host adag019 reporting.
  Task        3 on host adag019 reporting.
  Task        4 on host adag019 reporting.
  Task        5 on host adag019 reporting.
  Task        6 on host adag019 reporting.
  Task        7 on host adag019 reporting.
  Task        8 on host adag019 reporting.
  Task        9 on host adag019 reporting.
  Task       10 on host adag019 reporting.
  Task       11 on host adag019 reporting.
  Task       12 on host adag019 reporting.
  Task       13 on host adag019 reporting.
  Task       14 on host adag019 reporting.
  Task       15 on host adag019 reporting.
  Task       16 on host adag019 reporting.
  Task       17 on host adag019 reporting.
  Task       18 on host adag019 reporting.
  Task       19 on host adag019 reporting.
  Task       20 on host adag019 reporting.
  Task       21 on host adag019 reporting.
  Task       22 on host adag019 reporting.
  Task       23 on host adag019 reporting.
  Task       24 on host adag019 reporting.
  Task       25 on host adag019 reporting.
  Task       26 on host adag019 reporting.
  Task       27 on host adag019 reporting.
  Task       28 on host adag019 reporting.
  Task       29 on host adag019 reporting.
  Task       30 on host adag019 reporting.
  Task       31 on host adag019 reporting.
  Task       32 on host adag019 reporting.
  Task       33 on host adag019 reporting.
  Task       34 on host adag019 reporting.
  Task       35 on host adag019 reporting.
  Task       36 on host adag019 reporting.
  Task       37 on host adag019 reporting.
  Task       38 on host adag019 reporting.
  Task       39 on host adag019 reporting.
  Task       40 on host adag019 reporting.
  Task       41 on host adag019 reporting.
  Task       42 on host adag019 reporting.
  Task       43 on host adag019 reporting.
  Task       44 on host adag019 reporting.
  Task       45 on host adag019 reporting.
  Task       46 on host adag019 reporting.
  Task       47 on host adag019 reporting.
  Task       48 on host adag019 reporting.
  Task       49 on host adag019 reporting.
  Task       50 on host adag019 reporting.
  Task       51 on host adag019 reporting.
  Task       52 on host adag019 reporting.
  Task       53 on host adag019 reporting.
  Task       54 on host adag019 reporting.
  Task       55 on host adag019 reporting.
  Task       56 on host adag019 reporting.
  Task       57 on host adag019 reporting.
  Task       58 on host adag019 reporting.
  Task       59 on host adag019 reporting.
  Task       60 on host adag019 reporting.
  Task       61 on host adag019 reporting.
  Task       62 on host adag019 reporting.
  Task       63 on host adag019 reporting.
  Task       64 on host adag019 reporting.
  Task       65 on host adag019 reporting.
  Task       66 on host adag019 reporting.
  Task       67 on host adag019 reporting.
  Task       68 on host adag019 reporting.
  Task       69 on host adag019 reporting.
  Task       70 on host adag019 reporting.
  Task       71 on host adag019 reporting.
  Task       72 on host adag020 reporting.
  Task       73 on host adag020 reporting.
  Task       74 on host adag020 reporting.
  Task       75 on host adag020 reporting.
  Task       76 on host adag020 reporting.
  Task       77 on host adag020 reporting.
  Task       78 on host adag020 reporting.
  Task       79 on host adag020 reporting.
  Task       80 on host adag020 reporting.
  Task       81 on host adag020 reporting.
  Task       82 on host adag020 reporting.
  Task       83 on host adag020 reporting.
  Task       84 on host adag020 reporting.
  Task       85 on host adag020 reporting.
  Task       86 on host adag020 reporting.
  Task       87 on host adag020 reporting.
  Task       88 on host adag020 reporting.
  Task       89 on host adag020 reporting.
  Task       90 on host adag020 reporting.
  Task       91 on host adag020 reporting.
  Task       92 on host adag020 reporting.
  Task       93 on host adag020 reporting.
  Task       94 on host adag020 reporting.
  Task       95 on host adag020 reporting.
  Task       96 on host adag020 reporting.
  Task       97 on host adag020 reporting.
  Task       98 on host adag020 reporting.
  Task       99 on host adag020 reporting.
  Task      100 on host adag020 reporting.
  Task      101 on host adag020 reporting.
  Task      102 on host adag020 reporting.
  Task      103 on host adag020 reporting.
  Task      104 on host adag020 reporting.
  Task      105 on host adag020 reporting.
  Task      106 on host adag020 reporting.
  Task      107 on host adag020 reporting.
  Task      108 on host adag020 reporting.
  Task      109 on host adag020 reporting.
  Task      110 on host adag020 reporting.
  Task      111 on host adag020 reporting.
  Task      112 on host adag020 reporting.
  Task      113 on host adag020 reporting.
  Task      114 on host adag020 reporting.
  Task      115 on host adag020 reporting.
  Task      116 on host adag020 reporting.
  Task      117 on host adag020 reporting.
  Task      118 on host adag020 reporting.
  Task      119 on host adag020 reporting.
  Task      120 on host adag020 reporting.
  Task      121 on host adag020 reporting.
  Task      122 on host adag020 reporting.
  Task      123 on host adag020 reporting.
  Task      124 on host adag020 reporting.
  Task      125 on host adag020 reporting.
  Task      126 on host adag020 reporting.
  Task      127 on host adag020 reporting.
  Task      128 on host adag020 reporting.
  Task      129 on host adag020 reporting.
  Task      130 on host adag020 reporting.
  Task      131 on host adag020 reporting.
  Task      132 on host adag020 reporting.
  Task      133 on host adag020 reporting.
  Task      134 on host adag020 reporting.
  Task      135 on host adag020 reporting.
  Task      136 on host adag020 reporting.
  Task      137 on host adag020 reporting.
  Task      138 on host adag020 reporting.
  Task      139 on host adag020 reporting.
  Task      140 on host adag020 reporting.
  Task      141 on host adag020 reporting.
  Task      142 on host adag020 reporting.
  Task      143 on host adag020 reporting.
  Task      144 on host adag021 reporting.
  Task      145 on host adag021 reporting.
  Task      146 on host adag021 reporting.
  Task      147 on host adag021 reporting.
  Task      148 on host adag021 reporting.
  Task      149 on host adag021 reporting.
  Task      150 on host adag021 reporting.
  Task      151 on host adag021 reporting.
  Task      152 on host adag021 reporting.
  Task      153 on host adag021 reporting.
  Task      154 on host adag021 reporting.
  Task      155 on host adag021 reporting.
  Task      156 on host adag021 reporting.
  Task      157 on host adag021 reporting.
  Task      158 on host adag021 reporting.
  Task      159 on host adag021 reporting.
  Task      160 on host adag021 reporting.
  Task      161 on host adag021 reporting.
  Task      162 on host adag021 reporting.
  Task      163 on host adag021 reporting.
  Task      164 on host adag021 reporting.
  Task      165 on host adag021 reporting.
  Task      166 on host adag021 reporting.
  Task      167 on host adag021 reporting.
  Task      168 on host adag021 reporting.
  Task      169 on host adag021 reporting.
  Task      170 on host adag021 reporting.
  Task      171 on host adag021 reporting.
  Task      172 on host adag021 reporting.
  Task      173 on host adag021 reporting.
  Task      174 on host adag021 reporting.
  Task      175 on host adag021 reporting.
  Task      176 on host adag021 reporting.
  Task      177 on host adag021 reporting.
  Task      178 on host adag021 reporting.
  Task      179 on host adag021 reporting.
  Task      180 on host adag021 reporting.
  Task      181 on host adag021 reporting.
  Task      182 on host adag021 reporting.
  Task      183 on host adag021 reporting.
  Task      184 on host adag021 reporting.
  Task      185 on host adag021 reporting.
  Task      186 on host adag021 reporting.
  Task      187 on host adag021 reporting.
  Task      188 on host adag021 reporting.
  Task      189 on host adag021 reporting.
  Task      190 on host adag021 reporting.
  Task      191 on host adag021 reporting.
  Task      192 on host adag021 reporting.
  Task      193 on host adag021 reporting.
  Task      194 on host adag021 reporting.
  Task      195 on host adag021 reporting.
  Task      196 on host adag021 reporting.
  Task      197 on host adag021 reporting.
  Task      198 on host adag021 reporting.
  Task      199 on host adag021 reporting.
  Task      200 on host adag021 reporting.
  Task      201 on host adag021 reporting.
  Task      202 on host adag021 reporting.
  Task      203 on host adag021 reporting.
  Task      204 on host adag021 reporting.
  Task      205 on host adag021 reporting.
  Task      206 on host adag021 reporting.
  Task      207 on host adag021 reporting.
  Task      208 on host adag021 reporting.
  Task      209 on host adag021 reporting.
  Task      210 on host adag021 reporting.
  Task      211 on host adag021 reporting.
  Task      212 on host adag021 reporting.
  Task      213 on host adag021 reporting.
  Task      214 on host adag021 reporting.
  Task      215 on host adag021 reporting.
  Task      216 on host adag022 reporting.
  Task      217 on host adag022 reporting.
  Task      218 on host adag022 reporting.
  Task      219 on host adag022 reporting.
  Task      220 on host adag022 reporting.
  Task      221 on host adag022 reporting.
  Task      222 on host adag022 reporting.
  Task      223 on host adag022 reporting.
  Task      224 on host adag022 reporting.
  Task      225 on host adag022 reporting.
  Task      226 on host adag022 reporting.
  Task      227 on host adag022 reporting.
  Task      228 on host adag022 reporting.
  Task      229 on host adag022 reporting.
  Task      230 on host adag022 reporting.
  Task      231 on host adag022 reporting.
  Task      232 on host adag022 reporting.
  Task      233 on host adag022 reporting.
  Task      234 on host adag022 reporting.
  Task      235 on host adag022 reporting.
  Task      236 on host adag022 reporting.
  Task      237 on host adag022 reporting.
  Task      238 on host adag022 reporting.
  Task      239 on host adag022 reporting.
  Task      240 on host adag022 reporting.
  Task      241 on host adag022 reporting.
  Task      242 on host adag022 reporting.
  Task      243 on host adag022 reporting.
  Task      244 on host adag022 reporting.
  Task      245 on host adag022 reporting.
  Task      246 on host adag022 reporting.
  Task      247 on host adag022 reporting.
  Task      248 on host adag022 reporting.
  Task      249 on host adag022 reporting.
  Task      250 on host adag022 reporting.
  Task      251 on host adag022 reporting.
  Task      252 on host adag022 reporting.
  Task      253 on host adag022 reporting.
  Task      254 on host adag022 reporting.
  Task      255 on host adag022 reporting.
  Task      256 on host adag022 reporting.
  Task      257 on host adag022 reporting.
  Task      258 on host adag022 reporting.
  Task      259 on host adag022 reporting.
  Task      260 on host adag022 reporting.
  Task      261 on host adag022 reporting.
  Task      262 on host adag022 reporting.
  Task      263 on host adag022 reporting.
  Task      264 on host adag022 reporting.
  Task      265 on host adag022 reporting.
  Task      266 on host adag022 reporting.
  Task      267 on host adag022 reporting.
  Task      268 on host adag022 reporting.
  Task      269 on host adag022 reporting.
  Task      270 on host adag022 reporting.
  Task      271 on host adag022 reporting.
  Task      272 on host adag022 reporting.
  Task      273 on host adag022 reporting.
  Task      274 on host adag022 reporting.
  Task      275 on host adag022 reporting.
  Task      276 on host adag022 reporting.
  Task      277 on host adag022 reporting.
  Task      278 on host adag022 reporting.
  Task      279 on host adag022 reporting.
  Task      280 on host adag022 reporting.
  Task      281 on host adag022 reporting.
  Task      282 on host adag022 reporting.
  Task      283 on host adag022 reporting.
  Task      284 on host adag022 reporting.
  Task      285 on host adag022 reporting.
  Task      286 on host adag022 reporting.
  Task      287 on host adag022 reporting.

  Performing system and environment tests:
  | Environment variable OMP_NUM_THREADS correctly set to 1.
  | Checking for ScaLAPACK...
  | Testing pdtran()...
  | All pdtran() tests passed.

  Obtaining array dimensions for all initial allocations:
  
  -----------------------------------------------------------------------
  Parsing control.in (first pass over file, find array dimensions only).
  The contents of control.in will be repeated verbatim below
  unless switched off by setting 'verbatim_writeout .false.' .
  in the first line of control.in .
  -----------------------------------------------------------------------
  
    xc                 hse06  0.11
    hse_unit b
    spin               none
   # default_initial_moment 1
    charge      0.0
    relativistic       atomic_zora scalar
    #elsi_restart read
    # SCF settings
    relax_geometry bfgs 1E-3
    #relax_unit_cell fixed_angles
    use_symmetric_forces .true.
    occupation_type gaussian       0.1
    # k-grid settings  (to be adjusted)
    k_grid  4 4 1
    #empty_states 8
    use_dipole_correction
    #include_spin_orbit non_self_consistent
    # sc_accuracy_rho    1E-4
    #    sc_accuracy_eev    1E-3
    #    sc_accuracy_etot   1E-4
    #    sc_accuracy_forces 1E-2
    many_body_dispersion_nl    beta=0.83
    ################################################################################
    #
    #  FHI-aims code project
    #  Volker Blum, 2018
    #
    #  Suggested "intermediate" defaults for Se atom (to be pasted into control.in file)
    #
    #  2020/09/15 These "intermediate" settings are identical to past "tight" defaults
    #             and differ only in the "g" function that is now included in "tight".
    #
    ################################################################################
      species        Se
    #     global species definitions
        nucleus             34
        mass                78.96
    #
        l_hartree           6
    #
        cut_pot             4.0          2.0  1.0
        basis_dep_cutoff    1e-4
    #
        radial_base         55 7.0
        radial_multiplier   2
        angular_grids       specified
          division   0.0830  110
          division   0.1357  194
          division   0.7377  302
          division   0.8610  434
    #      division   0.9640  590
    #      division   1.0773  770
    #      division   2.5539  974
    #      outer_grid  974
          outer_grid  434
    ################################################################################
    #
    #  Definition of "minimal" basis
    #
    ################################################################################
    #     valence basis states
        valence      4  s   2.
        valence      4  p   4.
        valence      3  d  10.
    #     ion occupancy
        ion_occ      4  s   1.
        ion_occ      4  p   3.
        ion_occ      3  d  10.
    ################################################################################
    #
    #  Suggested additional basis functions. For production calculations,
    #  uncomment them one after another (the most important basis functions are
    #  listed first).
    #
    #  Constructed for dimers: 1.85 A, 2.15 A, 2.50 A, 3.00 A, 4.00 A
    #
    ################################################################################
    #  "First tier" - improvements: -336.21 meV to -36.85 meV
         hydro 3 d 4.3
         hydro 2 p 1.6
         hydro 4 f 7.2
         ionic 4 s auto
    #  "Second tier" - improvements: -14.39 meV to -1.49 meV
    #     hydro 5 g 10.4
    #     hydro 4 p 4.5
    #     hydro 4 d 6.2
    #     hydro 4 f 11.2
    #     hydro 1 s 0.65
    #     hydro 6 h 15.2
    #  "Third tier" - improvements: -0.46 meV and below
    #     hydro 5 g 14.4
    #     ionic 4 d auto
    #     hydro 4 f 22.4
    #     hydro 5 f 7.4
    #     hydro 5 p 8
    #     hydro 5 s 9.4
    #  "Fourth tier" - improvements: -0.12 meV and below
    #     hydro 5 d 11.6
    #     hydro 6 h 18
    #     hydro 4 p 4
    #     hydro 5 f 16
    #     hydro 4 s 3.9
  
  
    ################################################################################
    #
    #  FHI-aims code project
    #  Volker Blum, 2018
    #
    #  Suggested "intermediate" defaults for S atom (to be pasted into control.in file)
    #
    ################################################################################
      species        S
    #     global species definitions
        nucleus             16
        mass                32.065
    #
        l_hartree           6
    #
        cut_pot             4.0          2.0  1.0
        basis_dep_cutoff    1e-4
    #
        radial_base         44 7.0
        radial_multiplier   2
        angular_grids       specified
          division   0.4665  110
          division   0.5810  194
          division   0.7139  302
          division   0.8274  434
    #      division   0.9105  590
    #      division   1.0975  770
    #      division   1.2028  974
    #      outer_grid  974
          outer_grid  434
    ################################################################################
    #
    #  Definition of "minimal" basis
    #
    ################################################################################
    #     valence basis states
        valence      3  s   2.
        valence      3  p   4.
    #     ion occupancy
        ion_occ      3  s   1.
        ion_occ      3  p   3.
    ################################################################################
    #
    #  Suggested additional basis functions. For production calculations,
    #  uncomment them one after another (the most important basis functions are
    #  listed first).
    #
    #  Constructed for dimers: 1.6 A, 1.9 A, 2.5 A, 3.25 A, 4.0 A
    #
    ################################################################################
    #  "First tier" - improvements: -652.81 meV to -45.53 meV
         ionic 3 d auto
         hydro 2 p 1.8
         hydro 4 f 7
         ionic 3 s auto
    #  "Second tier" - improvements: -30.20 meV to -1.74 meV
    #     hydro 4 d 6.2
    for_aux     hydro 5 g 10.8
    #     hydro 4 p 4.9
    #     hydro 5 f 10
    #     hydro 1 s 0.8
    #  "Third tier" - improvements: -1.04 meV to -0.20 meV
    #     hydro 3 d 3.9
    #     hydro 3 d 2.7
    #     hydro 5 g 12
    #     hydro 4 p 10.4
    #     hydro 5 f 12.4
    #     hydro 2 s 1.9
    #  "Fourth tier" - improvements: -0.35 meV to -0.06 meV
    #     hydro 4 d 10.4
    #     hydro 4 p 7.2
    #     hydro 4 d 10
    #     hydro 5 g 19.2
    #     hydro 4 s 12
  
    ################################################################################
    #
    #  FHI-aims code project
    # Volker Blum, Fritz Haber Institute Berlin, 2009
    #
    #  Suggested "intermediate" defaults for Mo atom (to be pasted into control.in file)
    #
    #  See https://aaltodoc.aalto.fi/handle/123456789/33620 for the report these
    #  setting are based on
    ################################################################################
      species        Mo
    #     global species definitions
        nucleus             42
        mass                95.94
    #
        l_hartree           6
    #
        cut_pot             4.0  2.0  1.0
        basis_dep_cutoff    1e-4
    #
        radial_base         59 7.0
        radial_multiplier   2
        angular_grids specified
          division   0.3117   50
          division   0.6750  110
          division   1.0351  194
          division   1.2073  302
          division   1.6402  434
    #      division   1.9185  590
    #      division   2.0237  770
    #      division   2.0980  974
    #      division   2.7972 1202
    #      outer_grid  974
          outer_grid  434
    ################################################################################
    #
    #  Definition of "minimal" basis
    #
    ################################################################################
    #     valence basis states
        valence      5  s   1.
        valence      4  p   6.
        valence      4  d   5.
    #     ion occupancy
        ion_occ     5  s   0.
        ion_occ     4  p   6.
        ion_occ     4  d   4.
    ################################################################################
    #
    #  Suggested additional basis functions. For production calculations,
    #  uncomment them one after another (the most important basis functions are
    #  listed first).
    #
    #  Constructed for dimers: 1.675 A, 1.9 A, 2.375 A, 3.00 A, 4.00 A
    #
    ################################################################################
    #  "First tier"  - max. impr. -711.23  meV, min. impr. -21.07 meV
         hydro 4 f 8.4
         hydro 3 d 2.8
         ionic 5 p auto
         for_aux hydro 5 g 12
         ionic 5 s auto
    #  "Second tier" - max. impr. -39.38  meV, min. impr. -2.68 meV
    #     hydro 4 f 12.4
    #     hydro 3 d 3.3
    #     hydro 6 h 17.2
    #     hydro 4 f 7.6
    #     hydro 3 p 3.0
    #     hydro 1 s 0.65
    #  "Third tier"  - max. impr. -5.50 meV, min. impr. -0.47 meV
    #     hydro 4 f 29.2
    #     hydro 5 g 11.2
    #     hydro 3 d 6.8
    #     hydro 6 h 14.8
    #     hydro 2 p 2.3
    #     hydro 4 s 3.8
    #  "Fourth tier"  - max. impr. -0.58 meV, min. impr. -0.19 meV
    #     hydro 5 f 6.8
    #     hydro 5 d 14.8
    #     hydro 6 s 7.8
    #     hydro 5 g 20.8
    #     hydro 5 d 10.4
    #     hydro 5 p 9.8
    #  Further functions - -0.17 meV and below
    #     hydro 5 d 3.2
    ################################################################################
    #
    #  FHI-aims code project
    #  Volker Blum, Maria Dragoumi, Sebastian Kokott 2020
    #
    #  Suggested "intermediate" defaults for W atom (to be pasted into control.in file)
    #
    ################################################################################
      species          W
    #     global species definitions
        nucleus        74
        mass           183.84
    #
        l_hartree      6
    #
        cut_pot        4.0  2.0  1.0
        basis_dep_cutoff    1e-4
    #
        radial_base    71  7.0
        radial_multiplier  2
        angular_grids specified
          division   0.2901   50
          division   0.6986  110
          division   1.0528  194
          division   1.2659  302
          division   1.5223  434
    #      division   1.8111  590
    #      division   2.0105  770
    #      division   2.0413  974
    #      division   2.8804 1202
    #      outer_grid  974
          outer_grid  434
    ################################################################################
    #
    #  Definition of "minimal" basis
    #
    ################################################################################
    #     valence basis states
        valence      6  s   2.
        valence      5  p   6.
        valence      5  d   4.
        valence      4  f  14.
    #     ion occupancy
        ion_occ      6  s   1.
        ion_occ      5  p   6.
        ion_occ      5  d   3.
        ion_occ      4  f  14.
    ################################################################################
    #
    #  Suggested additional basis functions. For production calculations,
    #  uncomment them one after another (the most important basis functions are
    #  listed first).
    #
    #  Constructed for dimers: 1.775, 1.99, 2.50, 3.25, 4.50 AA
    #
    ################################################################################
    #
    #  "First tier" - improvements: -603.77 meV to -28.99 meV
         hydro 4 f 7.8
         hydro 4 d 5.8
         ionic 6 p auto
      for_aux   hydro 5 g 12.4
         ionic 6 s auto
    #  "Second tier" - improvements: -28.30 meV to -1.31 meV
    #     hydro 6 h 16.8
    #     ionic 5 d auto
    #     hydro 4 f 8.6
    #     hydro 5 g 16.8
    #     hydro 5 d 8.4
    #     hydro 3 p 3.3
    #     hydro 1 s 0.55
    #  "Third tier" - max. impr. -1.79 meV, min. impr. -0.26 meV
    #     hydro 5 f 10.8
    #     hydro 5 g 34.4
    #     hydro 6 h 20.8
    #     hydro 5 g 12.8
    #     hydro 2 p 1.6
    #     hydro 4 s 4.7
    #     hydro 6 d 18.4
    #  "Fourth tier" -0.46 max. impr. - meV, min. impr. -0.09 meV
    #     hydro 6 h 21.6
    #     hydro 5 f 22.4
    #     hydro 4 f 4
    #     hydro 5 p 9.6
    #     hydro 6 d 17.2
    #     hydro 3 p 5.2
    #     hydro 5 g 4.7
    #     hydro 6 s 7.6
  ################################################################################
  #
  #  FHI-aims code project
  #  Volker Blum, 2017
  #
  #  Suggested "intermediate" defaults for N atom (to be pasted into control.in file)
  #
  ################################################################################
    species        N
  #     global species definitions
      nucleus             7
      mass                14.0067
  #
      l_hartree           6
  #
      cut_pot             4.0  2.0  1.0
      basis_dep_cutoff    1e-4
  #
      radial_base         35 7.0
      radial_multiplier   2
      angular_grids       specified
        division   0.1841   50
        division   0.3514  110
        division   0.5126  194
        division   0.6292  302
        division   0.6939  434
  #      division   0.7396  590
  #      division   0.7632  770
  #      division   0.8122  974
  #      division   1.1604 1202
  #      outer_grid  974
        outer_grid  434
  ################################################################################
  #
  #  Definition of "minimal" basis
  #
  ################################################################################
  #     valence basis states
      valence      2  s   2.
      valence      2  p   3.
  #     ion occupancy
      ion_occ      2  s   1.
      ion_occ      2  p   2.
  ################################################################################
  #
  #  Suggested additional basis functions. For production calculations,
  #  uncomment them one after another (the most important basis functions are
  #  listed first).
  #
  #  Constructed for dimers: 1.0 A, 1.1 A, 1.5 A, 2.0 A, 3.0 A
  #
  ################################################################################
  #  "First tier" - improvements: -1193.42 meV to -220.60 meV
       hydro 2 p 1.8
       hydro 3 d 6.8
       hydro 3 s 5.8
  #  "Second tier" - improvements: -80.21 meV to -6.86 meV
       hydro 4 f 10.8
  #     hydro 3 p 5.8
  #     hydro 1 s 0.8
    for_aux    hydro 5 g 16
  #     hydro 3 d 4.9
  #  "Third tier" - improvements: -4.29 meV to -0.53 meV
  #     hydro 3 s 16
  #     ionic 2 p auto
  #     hydro 3 d 6.6
  #     hydro 4 f 11.6
  #  "Fourth tier" - improvements: -0.75 meV to -0.25 meV
  #     hydro 2 p 4.5
  #     hydro 2 s 2.4
  #     hydro 5 g 14.4
  #     hydro 4 d 14.4
  #     hydro 4 f 16.8
  # Further basis functions - -0.21 meV and below
  #     hydro 3 p 14.8
  #     hydro 3 s 4.4
  #     hydro 3 d 19.6
  #     hydro 5 g 12.8
  ################################################################################
  #
  #  FHI-aims code project
  #  Volker Blum, 2020
  #
  #  Suggested "intermediate" defaults for Ne atom (to be pasted into control.in file)
  #
  ################################################################################
    species        Ne
  #     global species definitions
      nucleus             9.96
      mass                20.1797
  #
      l_hartree           6
  #
      cut_pot             4.0  2.0  1.0
      basis_dep_cutoff    1e-4
  #
      radial_base         38 7.0
      radial_multiplier   2
      angular_grids specified
        division   0.4737  110
        division   0.6363  194
        division   0.7448  302
  #      division   0.8348  590
  #      division   1.0034  770
  #      division   1.7611  974
  #      outer_grid   974
        outer_grid  434
  ################################################################################
  #
  #  Definition of "minimal" basis
  #
  ################################################################################
  #     valence basis states
      valence      2  s   1.96
      valence      2  p   6.
  #     ion occupancy
      ion_occ      2  s   1.0
      ion_occ      2  p   4.96
  ################################################################################
  #
  #  Suggested additional basis functions. For production calculations,
  #  uncomment them one after another (the most important basis functions are
  #  listed first).
  #
  #  Constructed for dimers: 1.5 A, 1.75 A, 2.25 A, 2.625 A, 3.0 A, 3.5 A
  #
  #  Noble gas symmetric dimers converge quickly in DFT. If you find that
  #  you require a larger basis than tier 3, please contact us - VB, FHI.
  #
  ################################################################################
  #  "First tier" - improvements: -20.90 meV to -4.46 meV
       hydro 3 d 6
       hydro 2 p 1.5
       hydro 3 s 7.6
  #  "Second tier" - improvements: -2.26 meV to -0.22 meV
       hydro 4 f 9.4
  #     ionic 3 d auto
  #     ionic 3 s auto
    for_aux   hydro 5 g 13.6
  #     hydro 3 p 6
  #  "Third tier" - improvements: -0.21 meV and below
  #     hydro 2 s 8.6
  #     hydro 4 d 12
  #     hydro 4 d 7.6
  #     hydro 3 p 2.3
  
  ################################################################################
  #
  # For methods that use the localized form of the "resolution of identity" for
  # the two-electron Coulomb operator (RI_method LVL), particularly Hartree-Fock and
  # hybrid density functional calculations, the highest accuracy can be obtained by
  # uncommenting the line beginning with "for_aux"  below, thus adding an extra g radial
  # function to the construction of the product basis set for the expansion.
  # See Ref. New J. Phys. 17, 093020 (2015) for more information, particularly Figs. 1 and 6.
  #
  ################################################################################
  #
  # for_aux hydro 5 g 6.0
  
  -----------------------------------------------------------------------
  Completed first pass over input file control.in .
  -----------------------------------------------------------------------
  
  
  -----------------------------------------------------------------------
  Parsing geometry.in (first pass over file, find array dimensions only).
  The contents of geometry.in will be repeated verbatim below
  unless switched off by setting 'verbatim_writeout .false.' .
  in the first line of geometry.in .
  -----------------------------------------------------------------------
  
  #
  # This is the geometry file that corresponds to the current relaxation step.
  # If you do not want this file to be written, set the "write_restart_geometry" flag to .false.
  #  aims_uuid : 9C7820F6-9BA5-4D6C-AA99-255D2715A140
  #
    set_vacuum_level       101.735417
  lattice_vector     15.66681540     -0.00130320      0.00000000
  lattice_vector     -7.83441295     13.56700000      0.00000000
  lattice_vector      0.00000000      0.00000000    103.09098737
  atom       7.04903999     13.11357438     51.54549362 Mo
    constrain_relaxation .true.
  atom       0.78333487      0.45213444     53.09098737 S
    constrain_relaxation .true.
  atom       0.78333486      0.45213444     50.00000000 S
    constrain_relaxation .true.
  atom      13.31657035      2.25997438     51.54549362 Mo
    constrain_relaxation .true.
  atom      -0.78354772      3.16553444     53.09098737 S
    constrain_relaxation .true.
  atom      -0.78354773      3.16553444     50.00000000 S
    constrain_relaxation .true.
  atom      11.74968776      4.97337438     51.54549362 Mo
    constrain_relaxation .true.
  atom      -2.35043031      5.87893444     53.09098737 S
    constrain_relaxation .true.
  atom      -2.35043032      5.87893444     50.00000000 S
    constrain_relaxation .true.
  atom      10.18280517      7.68677438     51.54549362 Mo
    constrain_relaxation .true.
  atom      -3.91731290      8.59233444     53.09098737 S
    constrain_relaxation .true.
  atom      -3.91731291      8.59233444     50.00000000 S
    constrain_relaxation .true.
  atom       8.61592258     10.40017438     51.54549362 Mo
    constrain_relaxation .true.
  atom      -5.48419549     11.30573444     53.09098737 S
    constrain_relaxation .true.
  atom      -5.48419550     11.30573444     50.00000000 S
    constrain_relaxation .true.
  atom      -5.48441233     13.11461694     51.54549362 Mo
    constrain_relaxation .true.
  atom       3.91669795      0.45187380     53.09098737 S
    constrain_relaxation .true.
  atom       3.91669794      0.45187380     50.00000000 S
    constrain_relaxation .true.
  atom       0.78311803      2.26101694     51.54549362 Mo
    constrain_relaxation .true.
  atom       2.34981536      3.16527380     53.09098737 S
    constrain_relaxation .true.
  atom       2.34981535      3.16527380     50.00000000 S
    constrain_relaxation .true.
  atom      -0.78376456      4.97441694     51.54549362 Mo
    constrain_relaxation .true.
  atom       0.78293277      5.87867380     53.09098737 S
    constrain_relaxation .true.
  atom       0.78293276      5.87867380     50.00000000 S
    constrain_relaxation .true.
  atom      -2.35064715      7.68781694     51.54549362 Mo
    constrain_relaxation .true.
  atom      -0.78394982      8.59207380     53.09098737 S
    constrain_relaxation .true.
  atom      -0.78394983      8.59207380     50.00000000 S
    constrain_relaxation .true.
  atom      -3.91752974     10.40121694     51.54549362 Mo
    constrain_relaxation .true.
  atom      -2.35083241     11.30547380     53.09098737 S
    constrain_relaxation .true.
  atom      -2.35083242     11.30547380     50.00000000 S
    constrain_relaxation .true.
  atom      -2.35104925     13.11435630     51.54549362 Mo
    constrain_relaxation .true.
  atom       7.05006103      0.45161316     53.09098737 S
    constrain_relaxation .true.
  atom       7.05006102      0.45161316     50.00000000 S
    constrain_relaxation .true.
  atom       3.91648111      2.26075630     51.54549362 Mo
    constrain_relaxation .true.
  atom       5.50477671      3.19102781     53.10002922 S
  atom       5.48023361      3.18843840     49.99623199 S
  atom       2.34959852      4.97415630     51.54549362 Mo
    constrain_relaxation .true.
  atom       3.94951894      5.88414804     53.09999434 S
  atom       3.93510166      5.86421361     49.99625488 S
  atom       0.78271593      7.68755630     51.54549362 Mo
    constrain_relaxation .true.
  atom       2.34941326      8.59181316     53.09098737 S
    constrain_relaxation .true.
  atom       2.34941325      8.59181316     50.00000000 S
    constrain_relaxation .true.
  atom      -0.78416666     10.40095630     51.54549362 Mo
    constrain_relaxation .true.
  atom       0.78253067     11.30521316     53.09098737 S
    constrain_relaxation .true.
  atom       0.78253066     11.30521316     50.00000000 S
    constrain_relaxation .true.
  atom       0.78231383     13.11409566     51.54549362 Mo
    constrain_relaxation .true.
  atom      10.18342411      0.45135252     53.09098737 S
    constrain_relaxation .true.
  atom      10.18342410      0.45135252     50.00000000 S
    constrain_relaxation .true.
  atom       7.04984419      2.26049566     51.54549362 Mo
    constrain_relaxation .true.
  atom       8.59418643      3.19140312     53.09979439 S
  atom       8.63164232      3.18939406     49.99585409 S
  atom       5.48296160      4.97389566     51.54549362 Mo
    constrain_relaxation .true.
  atom       7.04965892      5.87815252     50.00000000 S
    constrain_relaxation .true.
  atom       3.91607901      7.68729566     51.54549362 Mo
    constrain_relaxation .true.
  atom       5.49466862      8.55891110     53.09978004 S
  atom       5.51165748      8.59236105     49.99587022 S
  atom       2.34919642     10.40069566     51.54549362 Mo
    constrain_relaxation .true.
  atom       3.91589375     11.30495252     53.09098737 S
    constrain_relaxation .true.
  atom       3.91589374     11.30495252     50.00000000 S
    constrain_relaxation .true.
  atom       3.91567691     13.11383502     51.54549362 Mo
    constrain_relaxation .true.
  atom      13.31678719      0.45109188     53.09098737 S
    constrain_relaxation .true.
  atom      13.31678718      0.45109188     50.00000000 S
    constrain_relaxation .true.
  atom      10.18320727      2.26023502     51.54549362 Mo
    constrain_relaxation .true.
  atom      11.74990460      3.16449188     53.09098737 S
    constrain_relaxation .true.
  atom      11.74990459      3.16449188     50.00000000 S
    constrain_relaxation .true.
  atom       8.61632468      4.97363502     51.54549362 Mo
    constrain_relaxation .true.
  atom      10.14899174      5.88328766     53.10028728 S
  atom      10.17566142      5.86445356     49.99700464 S
  atom       7.04944209      7.68703502     51.54549362 Mo
    constrain_relaxation .true.
  atom       8.60372218      8.55909638     53.10030798 S
  atom       8.60078196      8.59170357     49.99699793 S
  atom       5.48255950     10.40043502     51.54549362 Mo
    constrain_relaxation .true.
  atom       7.04925683     11.30469188     53.09098737 S
    constrain_relaxation .true.
  atom       7.04925682     11.30469188     50.00000000 S
    constrain_relaxation .true.
  atom       0.00000000      0.00000000     47.28885990 Ne
    constrain_relaxation .true.
  atom       3.13177593     -0.00000000     47.28885990 Ne
    constrain_relaxation .true.
  atom       6.26355187     -0.00000000     47.28885990 Ne
    constrain_relaxation .true.
  atom       9.39532780     -0.00000000     47.28885990 Ne
    constrain_relaxation .true.
  atom      12.52710374     -0.00000000     47.28885990 Ne
    constrain_relaxation .true.
  atom       1.56588797      2.71219752     47.28885990 Ne
    constrain_relaxation .true.
  atom       4.69766390      2.71219752     47.28885990 Ne
    constrain_relaxation .true.
  atom       7.82943983      2.71219752     47.28885990 Ne
    constrain_relaxation .true.
  atom      10.96121577      2.71219752     47.28885990 Ne
    constrain_relaxation .true.
  atom      14.09299170      2.71219752     47.28885990 Ne
    constrain_relaxation .true.
  atom       3.13177593      5.42439504     47.28885990 Ne
    constrain_relaxation .true.
  atom       6.26355187      5.42439504     47.28885990 Ne
    constrain_relaxation .true.
  atom       9.39532780      5.42439504     47.28885990 Ne
    constrain_relaxation .true.
  atom      12.52710374      5.42439504     47.28885990 Ne
    constrain_relaxation .true.
  atom      15.65887967      5.42439504     47.28885990 Ne
    constrain_relaxation .true.
  atom       4.69766390      8.13659255     47.28885990 Ne
    constrain_relaxation .true.
  atom       7.82943983      8.13659255     47.28885990 Ne
    constrain_relaxation .true.
  atom      10.96121577      8.13659255     47.28885990 Ne
    constrain_relaxation .true.
  atom      14.09299170      8.13659255     47.28885990 Ne
    constrain_relaxation .true.
  atom      17.22476764      8.13659255     47.28885990 Ne
    constrain_relaxation .true.
  atom       6.26355187     10.84879007     47.28885990 Ne
    constrain_relaxation .true.
  atom       9.39532780     10.84879007     47.28885990 Ne
    constrain_relaxation .true.
  atom      12.52710374     10.84879007     47.28885990 Ne
    constrain_relaxation .true.
  atom      15.65887967     10.84879007     47.28885990 Ne
    constrain_relaxation .true.
  atom      18.79065560     10.84879007     47.28885990 Ne
    constrain_relaxation .true.
  #
  # What follows is the current estimated Hessian matrix constructed by the BFGS algorithm.
  # This is NOT the true Hessian matrix of the system.
  # If you do not want this information here, switch it off using the "hessian_to_restart_geometry" keyword.
  #
  trust_radius             0.0314391872
  hessian_file
  
  -----------------------------------------------------------------------
  Completed first pass over input file geometry.in .
  -----------------------------------------------------------------------
  

  Basic array size parameters:
  | Number of species                 :        6
  | Number of atoms                   :       99
  | Number of lattice vectors         :        3
  | Max. basis fn. angular momentum   :        4
  | Max. atomic/ionic basis occupied n:        6
  | Max. number of basis fn. types    :        3
  | Max. radial fns per species/type  :       14
  | Max. logarithmic grid size        :     1483
  | Max. radial integration grid size :      143
  | Max. angular integration grid size:      434
  | Max. angular grid division number :        8
  | Radial grid for Hartree potential :     1483
  | Number of spin channels           :        1

------------------------------------------------------------
          Reading file control.in.
------------------------------------------------------------

  XC: Using HSE-functional with OMEGA =  0.110000E+00 <units>.
  XC: For the actual units (bohr^-1 or Angstrom^-1), see below.
  hse_unit: Unit for the HSE06 hybrid functional screening parameter set to bohr^(-1).
  Spin treatment: No spin polarisation.
  Charge =   0.000000E+00: Neutral system requested explicitly.
  Scalar relativistic treatment of kinetic energy: on-site free-atom approximation to ZORA.
  Geometry relaxation: Modified BFGS - TRM (trust radius method) for lattice optimization.
  Convergence accuracy for geometry relaxation: Maximum force <   0.100000E-02 eV/A.
  Occupation type: Gaussian broadening, width =   0.100000E+00 eV.
  Found k-point grid:         4         4         1
  Using dipole correction.
  Using libMBD for calculating MBD and TS energies
 
  Reading configuration options for species Se                  .
  | Found nuclear charge :  34.0000
  | Found atomic mass :    78.9600000000000      amu
  | Found l_max for Hartree potential  :   6
  | Found cutoff potl. onset [A], width [A], scale factor :    4.00000    2.00000    1.00000
  | Threshold for basis-dependent cutoff potential is   0.100000E-03
  | Found data for basic radial integration grid :    55 points, outermost radius =    7.000 A
  | Found multiplier for basic radial grid :   2
  | Found angular grid specification: user-specified.
  | Specified grid contains     5 separate shells.
  | Check grid settings after all constraints further below.
  | Found free-atom valence shell :  4 s   2.000
  | Found free-atom valence shell :  4 p   4.000
  | Found free-atom valence shell :  3 d  10.000
  | Found free-ion valence shell :  4 s   1.000
  | Found free-ion valence shell :  4 p   3.000
  | Found free-ion valence shell :  3 d  10.000
  | Found hydrogenic basis function :  3 d   4.300
  | Found hydrogenic basis function :  2 p   1.600
  | Found hydrogenic basis function :  4 f   7.200
  | Found ionic basis function :  4 s , default cutoff radius.
  Species Se                  : Missing cutoff potential type.
  Defaulting to exp(1/x)/(1-x)^2 type cutoff potential.
  Species Se: No 'logarithmic' tag. Using default grid for free atom:
  | Default logarithmic grid data [bohr] : 0.1000E-03 0.1000E+03 0.1012E+01
  | Will include ionic basis functions of  2.0-fold positive Se                   ion.
  Species Se: On-site basis accuracy parameter (for Gram-Schmidt orthonormalisation) not specified.
  Using default value basis_acc =  0.1000000E-03.
  Species Se                  : Using default innermost maximum threshold i_radial=  2 for radial functions.
  Species Se                  : Default cutoff onset for free atom density etc. : 0.40000000E+01 AA.
  Species Se                  : Basic radial grid will be enhanced according to radial_multiplier =   2, to contain   111 grid points.
 
  Reading configuration options for species S                   .
  | Found nuclear charge :  16.0000
  | Found atomic mass :    32.0650000000000      amu
  | Found l_max for Hartree potential  :   6
  | Found cutoff potl. onset [A], width [A], scale factor :    4.00000    2.00000    1.00000
  | Threshold for basis-dependent cutoff potential is   0.100000E-03
  | Found data for basic radial integration grid :    44 points, outermost radius =    7.000 A
  | Found multiplier for basic radial grid :   2
  | Found angular grid specification: user-specified.
  | Specified grid contains     5 separate shells.
  | Check grid settings after all constraints further below.
  | Found free-atom valence shell :  3 s   2.000
  | Found free-atom valence shell :  3 p   4.000
  | Found free-ion valence shell :  3 s   1.000
  | Found free-ion valence shell :  3 p   3.000
  | Found ionic basis function :  3 d , default cutoff radius.
  | Found hydrogenic basis function :  2 p   1.800
  | Found hydrogenic basis function :  4 f   7.000
  | Found ionic basis function :  3 s , default cutoff radius.
  | Found hydrogenic extended basis function :  5 g  10.800
  Species S                   : Missing cutoff potential type.
  Defaulting to exp(1/x)/(1-x)^2 type cutoff potential.
  Species S : No 'logarithmic' tag. Using default grid for free atom:
  | Default logarithmic grid data [bohr] : 0.1000E-03 0.1000E+03 0.1012E+01
  | Will include ionic basis functions of  2.0-fold positive S                    ion.
  Species S : On-site basis accuracy parameter (for Gram-Schmidt orthonormalisation) not specified.
  Using default value basis_acc =  0.1000000E-03.
  Species S                   : Using default innermost maximum threshold i_radial=  2 for radial functions.
  Species S                   : Default cutoff onset for free atom density etc. : 0.40000000E+01 AA.
  Species S                   : Basic radial grid will be enhanced according to radial_multiplier =   2, to contain    89 grid points.
 
  Reading configuration options for species Mo                  .
  | Found nuclear charge :  42.0000
  | Found atomic mass :    95.9400000000000      amu
  | Found l_max for Hartree potential  :   6
  | Found cutoff potl. onset [A], width [A], scale factor :    4.00000    2.00000    1.00000
  | Threshold for basis-dependent cutoff potential is   0.100000E-03
  | Found data for basic radial integration grid :    59 points, outermost radius =    7.000 A
  | Found multiplier for basic radial grid :   2
  | Found angular grid specification: user-specified.
  | Specified grid contains     6 separate shells.
  | Check grid settings after all constraints further below.
  | Found free-atom valence shell :  5 s   1.000
  | Found free-atom valence shell :  4 p   6.000
  | Found free-atom valence shell :  4 d   5.000
  | Found free-ion valence shell :  5 s   0.000
  | Found free-ion valence shell :  4 p   6.000
  | Found free-ion valence shell :  4 d   4.000
  | Found hydrogenic basis function :  4 f   8.400
  | Found hydrogenic basis function :  3 d   2.800
  | Found ionic basis function :  5 p , default cutoff radius.
  | Found hydrogenic extended basis function :  5 g  12.000
  | Found ionic basis function :  5 s , default cutoff radius.
  Species Mo                  : Missing cutoff potential type.
  Defaulting to exp(1/x)/(1-x)^2 type cutoff potential.
  Species Mo: No 'logarithmic' tag. Using default grid for free atom:
  | Default logarithmic grid data [bohr] : 0.1000E-03 0.1000E+03 0.1012E+01
  | Will include ionic basis functions of  2.0-fold positive Mo                   ion.
  Species Mo: On-site basis accuracy parameter (for Gram-Schmidt orthonormalisation) not specified.
  Using default value basis_acc =  0.1000000E-03.
  Species Mo                  : Using default innermost maximum threshold i_radial=  2 for radial functions.
  Species Mo                  : Default cutoff onset for free atom density etc. : 0.40000000E+01 AA.
  Species Mo                  : Basic radial grid will be enhanced according to radial_multiplier =   2, to contain   119 grid points.
 
  Reading configuration options for species W                   .
  | Found nuclear charge :  74.0000
  | Found atomic mass :    183.840000000000      amu
  | Found l_max for Hartree potential  :   6
  | Found cutoff potl. onset [A], width [A], scale factor :    4.00000    2.00000    1.00000
  | Threshold for basis-dependent cutoff potential is   0.100000E-03
  | Found data for basic radial integration grid :    71 points, outermost radius =    7.000 A
  | Found multiplier for basic radial grid :   2
  | Found angular grid specification: user-specified.
  | Specified grid contains     6 separate shells.
  | Check grid settings after all constraints further below.
  | Found free-atom valence shell :  6 s   2.000
  | Found free-atom valence shell :  5 p   6.000
  | Found free-atom valence shell :  5 d   4.000
  | Found free-atom valence shell :  4 f  14.000
  | Found free-ion valence shell :  6 s   1.000
  | Found free-ion valence shell :  5 p   6.000
  | Found free-ion valence shell :  5 d   3.000
  | Found free-ion valence shell :  4 f  14.000
  | Found hydrogenic basis function :  4 f   7.800
  | Found hydrogenic basis function :  4 d   5.800
  | Found ionic basis function :  6 p , default cutoff radius.
  | Found hydrogenic extended basis function :  5 g  12.400
  | Found ionic basis function :  6 s , default cutoff radius.
  Species W                   : Missing cutoff potential type.
  Defaulting to exp(1/x)/(1-x)^2 type cutoff potential.
  Species W : No 'logarithmic' tag. Using default grid for free atom:
  | Default logarithmic grid data [bohr] : 0.1000E-03 0.1000E+03 0.1012E+01
  | Will include ionic basis functions of  2.0-fold positive W                    ion.
  Species W : On-site basis accuracy parameter (for Gram-Schmidt orthonormalisation) not specified.
  Using default value basis_acc =  0.1000000E-03.
  Species W                   : Using default innermost maximum threshold i_radial=  2 for radial functions.
  Species W                   : Default cutoff onset for free atom density etc. : 0.40000000E+01 AA.
  Species W                   : Basic radial grid will be enhanced according to radial_multiplier =   2, to contain   143 grid points.
 
  Reading configuration options for species N                   .
  | Found nuclear charge :   7.0000
  | Found atomic mass :    14.0067000000000      amu
  | Found l_max for Hartree potential  :   6
  | Found cutoff potl. onset [A], width [A], scale factor :    4.00000    2.00000    1.00000
  | Threshold for basis-dependent cutoff potential is   0.100000E-03
  | Found data for basic radial integration grid :    35 points, outermost radius =    7.000 A
  | Found multiplier for basic radial grid :   2
  | Found angular grid specification: user-specified.
  | Specified grid contains     6 separate shells.
  | Check grid settings after all constraints further below.
  | Found free-atom valence shell :  2 s   2.000
  | Found free-atom valence shell :  2 p   3.000
  | Found free-ion valence shell :  2 s   1.000
  | Found free-ion valence shell :  2 p   2.000
  | Found hydrogenic basis function :  2 p   1.800
  | Found hydrogenic basis function :  3 d   6.800
  | Found hydrogenic basis function :  3 s   5.800
  | Found hydrogenic basis function :  4 f  10.800
  | Found hydrogenic extended basis function :  5 g  16.000
  Species N                   : Missing cutoff potential type.
  Defaulting to exp(1/x)/(1-x)^2 type cutoff potential.
  Species N : No 'logarithmic' tag. Using default grid for free atom:
  | Default logarithmic grid data [bohr] : 0.1000E-03 0.1000E+03 0.1012E+01
  Species N : On-site basis accuracy parameter (for Gram-Schmidt orthonormalisation) not specified.
  Using default value basis_acc =  0.1000000E-03.
  Species N                   : Using default innermost maximum threshold i_radial=  2 for radial functions.
  Species N                   : Default cutoff onset for free atom density etc. : 0.40000000E+01 AA.
  Species N                   : Basic radial grid will be enhanced according to radial_multiplier =   2, to contain    71 grid points.
 
  Reading configuration options for species Ne                  .
  | Found nuclear charge :   9.9600
  | Found atomic mass :    20.1797000000000      amu
  | Found l_max for Hartree potential  :   6
  | Found cutoff potl. onset [A], width [A], scale factor :    4.00000    2.00000    1.00000
  | Threshold for basis-dependent cutoff potential is   0.100000E-03
  | Found data for basic radial integration grid :    38 points, outermost radius =    7.000 A
  | Found multiplier for basic radial grid :   2
  | Found angular grid specification: user-specified.
  | Specified grid contains     4 separate shells.
  | Check grid settings after all constraints further below.
  | Found free-atom valence shell :  2 s   1.960
  | Found free-atom valence shell :  2 p   6.000
  | Found free-ion valence shell :  2 s   1.000
  | Found free-ion valence shell :  2 p   4.960
  | Found hydrogenic basis function :  3 d   6.000
  | Found hydrogenic basis function :  2 p   1.500
  | Found hydrogenic basis function :  3 s   7.600
  | Found hydrogenic basis function :  4 f   9.400
  | Found hydrogenic extended basis function :  5 g  13.600
  Species Ne                  : Missing cutoff potential type.
  Defaulting to exp(1/x)/(1-x)^2 type cutoff potential.
  Species Ne: No 'logarithmic' tag. Using default grid for free atom:
  | Default logarithmic grid data [bohr] : 0.1000E-03 0.1000E+03 0.1012E+01
  Species Ne: On-site basis accuracy parameter (for Gram-Schmidt orthonormalisation) not specified.
  Using default value basis_acc =  0.1000000E-03.
  Species Ne                  : Using default innermost maximum threshold i_radial=  2 for radial functions.
  Species Ne                  : Default cutoff onset for free atom density etc. : 0.40000000E+01 AA.
  Species Ne                  : Basic radial grid will be enhanced according to radial_multiplier =   2, to contain    77 grid points.
 
  Finished reading input file 'control.in'.
 
------------------------------------------------------------


------------------------------------------------------------
          Reading geometry description geometry.in.
------------------------------------------------------------
  Vacuum level in z-axis :   0.101735E+03
  Found relaxation constraint for atom      1: All coordinates fixed.
  Found relaxation constraint for atom      2: All coordinates fixed.
  Found relaxation constraint for atom      3: All coordinates fixed.
  Found relaxation constraint for atom      4: All coordinates fixed.
  Found relaxation constraint for atom      5: All coordinates fixed.
  Found relaxation constraint for atom      6: All coordinates fixed.
  Found relaxation constraint for atom      7: All coordinates fixed.
  Found relaxation constraint for atom      8: All coordinates fixed.
  Found relaxation constraint for atom      9: All coordinates fixed.
  Found relaxation constraint for atom     10: All coordinates fixed.
  Found relaxation constraint for atom     11: All coordinates fixed.
  Found relaxation constraint for atom     12: All coordinates fixed.
  Found relaxation constraint for atom     13: All coordinates fixed.
  Found relaxation constraint for atom     14: All coordinates fixed.
  Found relaxation constraint for atom     15: All coordinates fixed.
  Found relaxation constraint for atom     16: All coordinates fixed.
  Found relaxation constraint for atom     17: All coordinates fixed.
  Found relaxation constraint for atom     18: All coordinates fixed.
  Found relaxation constraint for atom     19: All coordinates fixed.
  Found relaxation constraint for atom     20: All coordinates fixed.
  Found relaxation constraint for atom     21: All coordinates fixed.
  Found relaxation constraint for atom     22: All coordinates fixed.
  Found relaxation constraint for atom     23: All coordinates fixed.
  Found relaxation constraint for atom     24: All coordinates fixed.
  Found relaxation constraint for atom     25: All coordinates fixed.
  Found relaxation constraint for atom     26: All coordinates fixed.
  Found relaxation constraint for atom     27: All coordinates fixed.
  Found relaxation constraint for atom     28: All coordinates fixed.
  Found relaxation constraint for atom     29: All coordinates fixed.
  Found relaxation constraint for atom     30: All coordinates fixed.
  Found relaxation constraint for atom     31: All coordinates fixed.
  Found relaxation constraint for atom     32: All coordinates fixed.
  Found relaxation constraint for atom     33: All coordinates fixed.
  Found relaxation constraint for atom     34: All coordinates fixed.
  Found relaxation constraint for atom     37: All coordinates fixed.
  Found relaxation constraint for atom     40: All coordinates fixed.
  Found relaxation constraint for atom     41: All coordinates fixed.
  Found relaxation constraint for atom     42: All coordinates fixed.
  Found relaxation constraint for atom     43: All coordinates fixed.
  Found relaxation constraint for atom     44: All coordinates fixed.
  Found relaxation constraint for atom     45: All coordinates fixed.
  Found relaxation constraint for atom     46: All coordinates fixed.
  Found relaxation constraint for atom     47: All coordinates fixed.
  Found relaxation constraint for atom     48: All coordinates fixed.
  Found relaxation constraint for atom     49: All coordinates fixed.
  Found relaxation constraint for atom     52: All coordinates fixed.
  Found relaxation constraint for atom     53: All coordinates fixed.
  Found relaxation constraint for atom     54: All coordinates fixed.
  Found relaxation constraint for atom     57: All coordinates fixed.
  Found relaxation constraint for atom     58: All coordinates fixed.
  Found relaxation constraint for atom     59: All coordinates fixed.
  Found relaxation constraint for atom     60: All coordinates fixed.
  Found relaxation constraint for atom     61: All coordinates fixed.
  Found relaxation constraint for atom     62: All coordinates fixed.
  Found relaxation constraint for atom     63: All coordinates fixed.
  Found relaxation constraint for atom     64: All coordinates fixed.
  Found relaxation constraint for atom     65: All coordinates fixed.
  Found relaxation constraint for atom     66: All coordinates fixed.
  Found relaxation constraint for atom     69: All coordinates fixed.
  Found relaxation constraint for atom     72: All coordinates fixed.
  Found relaxation constraint for atom     73: All coordinates fixed.
  Found relaxation constraint for atom     74: All coordinates fixed.
  Found relaxation constraint for atom     75: All coordinates fixed.
  Found relaxation constraint for atom     76: All coordinates fixed.
  Found relaxation constraint for atom     77: All coordinates fixed.
  Found relaxation constraint for atom     78: All coordinates fixed.
  Found relaxation constraint for atom     79: All coordinates fixed.
  Found relaxation constraint for atom     80: All coordinates fixed.
  Found relaxation constraint for atom     81: All coordinates fixed.
  Found relaxation constraint for atom     82: All coordinates fixed.
  Found relaxation constraint for atom     83: All coordinates fixed.
  Found relaxation constraint for atom     84: All coordinates fixed.
  Found relaxation constraint for atom     85: All coordinates fixed.
  Found relaxation constraint for atom     86: All coordinates fixed.
  Found relaxation constraint for atom     87: All coordinates fixed.
  Found relaxation constraint for atom     88: All coordinates fixed.
  Found relaxation constraint for atom     89: All coordinates fixed.
  Found relaxation constraint for atom     90: All coordinates fixed.
  Found relaxation constraint for atom     91: All coordinates fixed.
  Found relaxation constraint for atom     92: All coordinates fixed.
  Found relaxation constraint for atom     93: All coordinates fixed.
  Found relaxation constraint for atom     94: All coordinates fixed.
  Found relaxation constraint for atom     95: All coordinates fixed.
  Found relaxation constraint for atom     96: All coordinates fixed.
  Found relaxation constraint for atom     97: All coordinates fixed.
  Found relaxation constraint for atom     98: All coordinates fixed.
  Found relaxation constraint for atom     99: All coordinates fixed.
  Found keyword 'hessian_file', indicating that this is the continuation of a structure optimization.
  Verifying the existence of the file 'hessian.aims' on all processors
  | The smallest distance between any two atoms is         2.36328862 AA.
  | The first atom of this pair is atom number                     51 .
  | The second atom of this pair is atom number                    66 .
  | Wigner-Seitz cell of the first atom image           0     0     0 .
  | (The Wigner-Seitz cell of the second atom is 0 0 0  by definition.)

  Symmetry information by spglib:
  | Precision set to  0.1E-04
  | Number of Operations  : 1
  | Space group           : 1
  | International         : P1
  | Schoenflies           : C1^1
  Input structure read successfully.
  The structure contains       99 atoms,  and a total of       2083.000 electrons.

  Input geometry:
  | Unit cell:
  |       15.66681540       -0.00130320        0.00000000
  |       -7.83441295       13.56700000        0.00000000
  |        0.00000000        0.00000000      103.09098737
  | Atomic structure:
  |       Atom                x [A]            y [A]            z [A]
  |    1: Species Mo            7.04903999       13.11357438       51.54549362
  |    2: Species S             0.78333487        0.45213444       53.09098737
  |    3: Species S             0.78333486        0.45213444       50.00000000
  |    4: Species Mo           13.31657035        2.25997438       51.54549362
  |    5: Species S            -0.78354772        3.16553444       53.09098737
  |    6: Species S            -0.78354773        3.16553444       50.00000000
  |    7: Species Mo           11.74968776        4.97337438       51.54549362
  |    8: Species S            -2.35043031        5.87893444       53.09098737
  |    9: Species S            -2.35043032        5.87893444       50.00000000
  |   10: Species Mo           10.18280517        7.68677438       51.54549362
  |   11: Species S            -3.91731290        8.59233444       53.09098737
  |   12: Species S            -3.91731291        8.59233444       50.00000000
  |   13: Species Mo            8.61592258       10.40017438       51.54549362
  |   14: Species S            -5.48419549       11.30573444       53.09098737
  |   15: Species S            -5.48419550       11.30573444       50.00000000
  |   16: Species Mo           -5.48441233       13.11461694       51.54549362
  |   17: Species S             3.91669795        0.45187380       53.09098737
  |   18: Species S             3.91669794        0.45187380       50.00000000
  |   19: Species Mo            0.78311803        2.26101694       51.54549362
  |   20: Species S             2.34981536        3.16527380       53.09098737
  |   21: Species S             2.34981535        3.16527380       50.00000000
  |   22: Species Mo           -0.78376456        4.97441694       51.54549362
  |   23: Species S             0.78293277        5.87867380       53.09098737
  |   24: Species S             0.78293276        5.87867380       50.00000000
  |   25: Species Mo           -2.35064715        7.68781694       51.54549362
  |   26: Species S            -0.78394982        8.59207380       53.09098737
  |   27: Species S            -0.78394983        8.59207380       50.00000000
  |   28: Species Mo           -3.91752974       10.40121694       51.54549362
  |   29: Species S            -2.35083241       11.30547380       53.09098737
  |   30: Species S            -2.35083242       11.30547380       50.00000000
  |   31: Species Mo           -2.35104925       13.11435630       51.54549362
  |   32: Species S             7.05006103        0.45161316       53.09098737
  |   33: Species S             7.05006102        0.45161316       50.00000000
  |   34: Species Mo            3.91648111        2.26075630       51.54549362
  |   35: Species S             5.50477671        3.19102781       53.10002922
  |   36: Species S             5.48023361        3.18843840       49.99623199
  |   37: Species Mo            2.34959852        4.97415630       51.54549362
  |   38: Species S             3.94951894        5.88414804       53.09999434
  |   39: Species S             3.93510166        5.86421361       49.99625488
  |   40: Species Mo            0.78271593        7.68755630       51.54549362
  |   41: Species S             2.34941326        8.59181316       53.09098737
  |   42: Species S             2.34941325        8.59181316       50.00000000
  |   43: Species Mo           -0.78416666       10.40095630       51.54549362
  |   44: Species S             0.78253067       11.30521316       53.09098737
  |   45: Species S             0.78253066       11.30521316       50.00000000
  |   46: Species Mo            0.78231383       13.11409566       51.54549362
  |   47: Species S            10.18342411        0.45135252       53.09098737
  |   48: Species S            10.18342410        0.45135252       50.00000000
  |   49: Species Mo            7.04984419        2.26049566       51.54549362
  |   50: Species S             8.59418643        3.19140312       53.09979439
  |   51: Species S             8.63164232        3.18939406       49.99585409
  |   52: Species Mo            5.48296160        4.97389566       51.54549362
  |   53: Species S             7.04965892        5.87815252       50.00000000
  |   54: Species Mo            3.91607901        7.68729566       51.54549362
  |   55: Species S             5.49466862        8.55891110       53.09978004
  |   56: Species S             5.51165748        8.59236105       49.99587022
  |   57: Species Mo            2.34919642       10.40069566       51.54549362
  |   58: Species S             3.91589375       11.30495252       53.09098737
  |   59: Species S             3.91589374       11.30495252       50.00000000
  |   60: Species Mo            3.91567691       13.11383502       51.54549362
  |   61: Species S            13.31678719        0.45109188       53.09098737
  |   62: Species S            13.31678718        0.45109188       50.00000000
  |   63: Species Mo           10.18320727        2.26023502       51.54549362
  |   64: Species S            11.74990460        3.16449188       53.09098737
  |   65: Species S            11.74990459        3.16449188       50.00000000
  |   66: Species Mo            8.61632468        4.97363502       51.54549362
  |   67: Species S            10.14899174        5.88328766       53.10028728
  |   68: Species S            10.17566142        5.86445356       49.99700464
  |   69: Species Mo            7.04944209        7.68703502       51.54549362
  |   70: Species S             8.60372218        8.55909638       53.10030798
  |   71: Species S             8.60078196        8.59170357       49.99699793
  |   72: Species Mo            5.48255950       10.40043502       51.54549362
  |   73: Species S             7.04925683       11.30469188       53.09098737
  |   74: Species S             7.04925682       11.30469188       50.00000000
  |   75: Species Ne            0.00000000        0.00000000       47.28885990
  |   76: Species Ne            3.13177593        0.00000000       47.28885990
  |   77: Species Ne            6.26355187        0.00000000       47.28885990
  |   78: Species Ne            9.39532780        0.00000000       47.28885990
  |   79: Species Ne           12.52710374        0.00000000       47.28885990
  |   80: Species Ne            1.56588797        2.71219752       47.28885990
  |   81: Species Ne            4.69766390        2.71219752       47.28885990
  |   82: Species Ne            7.82943983        2.71219752       47.28885990
  |   83: Species Ne           10.96121577        2.71219752       47.28885990
  |   84: Species Ne           14.09299170        2.71219752       47.28885990
  |   85: Species Ne            3.13177593        5.42439504       47.28885990
  |   86: Species Ne            6.26355187        5.42439504       47.28885990
  |   87: Species Ne            9.39532780        5.42439504       47.28885990
  |   88: Species Ne           12.52710374        5.42439504       47.28885990
  |   89: Species Ne           15.65887967        5.42439504       47.28885990
  |   90: Species Ne            4.69766390        8.13659255       47.28885990
  |   91: Species Ne            7.82943983        8.13659255       47.28885990
  |   92: Species Ne           10.96121577        8.13659255       47.28885990
  |   93: Species Ne           14.09299170        8.13659255       47.28885990
  |   94: Species Ne           17.22476764        8.13659255       47.28885990
  |   95: Species Ne            6.26355187       10.84879007       47.28885990
  |   96: Species Ne            9.39532780       10.84879007       47.28885990
  |   97: Species Ne           12.52710374       10.84879007       47.28885990
  |   98: Species Ne           15.65887967       10.84879007       47.28885990
  |   99: Species Ne           18.79065560       10.84879007       47.28885990

  Lattice parameters for 3D lattice (in Angstroms) :    15.666815   15.666573  103.090987
  Angle(s) between unit vectors (in degrees)       :    90.000000   90.000000  120.009523


  Quantities derived from the lattice vectors (in Angstrom^-1):
  | Reciprocal lattice vector 1:  0.401070  0.231602  0.000000
  | Reciprocal lattice vector 2:  0.000039  0.463145  0.000000
  | Reciprocal lattice vector 3:  0.000000  0.000000  0.060948
  | Unit cell volume                               :   0.219111E+05  Angstrom^3

  Fractional coordinates:
                         L1                L2                L3
       atom_frac         0.93333070        0.96666844        0.50000000  Mo
       atom_frac         0.06666799        0.03333245        0.51499155  S
       atom_frac         0.06666799        0.03333245        0.48500845  S
       atom_frac         0.93333070        0.16666844        0.50000000  Mo
       atom_frac         0.06666799        0.23333245        0.51499155  S
       atom_frac         0.06666799        0.23333245        0.48500845  S
       atom_frac         0.93333070        0.36666844        0.50000000  Mo
       atom_frac         0.06666799        0.43333245        0.51499155  S
       atom_frac         0.06666799        0.43333245        0.48500845  S
       atom_frac         0.93333070        0.56666844        0.50000000  Mo
       atom_frac         0.06666799        0.63333245        0.51499155  S
       atom_frac         0.06666799        0.63333245        0.48500845  S
       atom_frac         0.93333070        0.76666844        0.50000000  Mo
       atom_frac         0.06666799        0.83333245        0.51499155  S
       atom_frac         0.06666799        0.83333245        0.48500845  S
       atom_frac         0.13333070        0.96666844        0.50000000  Mo
       atom_frac         0.26666799        0.03333245        0.51499155  S
       atom_frac         0.26666799        0.03333245        0.48500845  S
       atom_frac         0.13333070        0.16666844        0.50000000  Mo
       atom_frac         0.26666799        0.23333245        0.51499155  S
       atom_frac         0.26666799        0.23333245        0.48500845  S
       atom_frac         0.13333070        0.36666844        0.50000000  Mo
       atom_frac         0.26666799        0.43333245        0.51499155  S
       atom_frac         0.26666799        0.43333245        0.48500845  S
       atom_frac         0.13333070        0.56666844        0.50000000  Mo
       atom_frac         0.26666799        0.63333245        0.51499155  S
       atom_frac         0.26666799        0.63333245        0.48500845  S
       atom_frac         0.13333070        0.76666844        0.50000000  Mo
       atom_frac         0.26666799        0.83333245        0.51499155  S
       atom_frac         0.26666799        0.83333245        0.48500845  S
       atom_frac         0.33333070        0.96666844        0.50000000  Mo
       atom_frac         0.46666799        0.03333245        0.51499155  S
       atom_frac         0.46666799        0.03333245        0.48500845  S
       atom_frac         0.33333070        0.16666844        0.50000000  Mo
       atom_frac         0.46900557        0.23525017        0.51507926  S
       atom_frac         0.46734348        0.23505915        0.48497190  S
       atom_frac         0.33333070        0.36666844        0.50000000  Mo
       atom_frac         0.46900008        0.43375538        0.51507892  S
       atom_frac         0.46734500        0.43228589        0.48497212  S
       atom_frac         0.33333070        0.56666844        0.50000000  Mo
       atom_frac         0.46666799        0.63333245        0.51499155  S
       atom_frac         0.46666799        0.63333245        0.48500845  S
       atom_frac         0.33333070        0.76666844        0.50000000  Mo
       atom_frac         0.46666799        0.83333245        0.51499155  S
       atom_frac         0.46666799        0.83333245        0.48500845  S
       atom_frac         0.53333070        0.96666844        0.50000000  Mo
       atom_frac         0.66666799        0.03333245        0.51499155  S
       atom_frac         0.66666799        0.03333245        0.48500845  S
       atom_frac         0.53333070        0.16666844        0.50000000  Mo
       atom_frac         0.66622337        0.23529677        0.51507698  S
       atom_frac         0.66854021        0.23514891        0.48496823  S
       atom_frac         0.53333070        0.36666844        0.50000000  Mo
       atom_frac         0.66666799        0.43333245        0.48500845  S
       atom_frac         0.53333070        0.56666844        0.50000000  Mo
       atom_frac         0.66622391        0.63092646        0.51507684  S
       atom_frac         0.66854134        0.63339222        0.48496839  S
       atom_frac         0.53333070        0.76666844        0.50000000  Mo
       atom_frac         0.66666799        0.83333245        0.51499155  S
       atom_frac         0.66666799        0.83333245        0.48500845  S
       atom_frac         0.73333070        0.96666844        0.50000000  Mo
       atom_frac         0.86666799        0.03333245        0.51499155  S
       atom_frac         0.86666799        0.03333245        0.48500845  S
       atom_frac         0.73333070        0.16666844        0.50000000  Mo
       atom_frac         0.86666799        0.23333245        0.51499155  S
       atom_frac         0.86666799        0.23333245        0.48500845  S
       atom_frac         0.73333070        0.36666844        0.50000000  Mo
       atom_frac         0.86469465        0.43372997        0.51508176  S
       atom_frac         0.86570280        0.43234184        0.48497939  S
       atom_frac         0.73333070        0.56666844        0.50000000  Mo
       atom_frac         0.86468862        0.63095918        0.51508196  S
       atom_frac         0.86570286        0.63336270        0.48497933  S
       atom_frac         0.73333070        0.76666844        0.50000000  Mo
       atom_frac         0.86666799        0.83333245        0.51499155  S
       atom_frac         0.86666799        0.83333245        0.48500845  S
       atom_frac         0.00000000        0.00000000        0.45870993  Ne
       atom_frac         0.19990830        0.00001920        0.45870993  Ne
       atom_frac         0.39981659        0.00003841        0.45870993  Ne
       atom_frac         0.59972489        0.00005761        0.45870993  Ne
       atom_frac         0.79963319        0.00007681        0.45870993  Ne
       atom_frac         0.19992746        0.19993057        0.45870993  Ne
       atom_frac         0.39983576        0.19994977        0.45870993  Ne
[...]
            atom         0.78253067       11.30521316       53.09098737  S
            atom         0.78253066       11.30521316       50.00000000  S
            atom         0.78231383       13.11409566       51.54549362  Mo
            atom        10.18342411        0.45135252       53.09098737  S
            atom        10.18342410        0.45135252       50.00000000  S
            atom         7.04984419        2.26049566       51.54549362  Mo
            atom         8.59418643        3.19140312       53.09979439  S
            atom         8.63164232        3.18939406       49.99585409  S
            atom         5.48296160        4.97389566       51.54549362  Mo
            atom         7.04965892        5.87815252       50.00000000  S
            atom         3.91607901        7.68729566       51.54549362  Mo
            atom         5.49466862        8.55891110       53.09978004  S
            atom         5.51165748        8.59236105       49.99587022  S
            atom         2.34919642       10.40069566       51.54549362  Mo
            atom         3.91589375       11.30495252       53.09098737  S
            atom         3.91589374       11.30495252       50.00000000  S
            atom         3.91567691       13.11383502       51.54549362  Mo
            atom        13.31678719        0.45109188       53.09098737  S
            atom        13.31678718        0.45109188       50.00000000  S
            atom        10.18320727        2.26023502       51.54549362  Mo
            atom        11.74990460        3.16449188       53.09098737  S
            atom        11.74990459        3.16449188       50.00000000  S
            atom         8.61632468        4.97363502       51.54549362  Mo
            atom        10.14899174        5.88328766       53.10028728  S
            atom        10.17566142        5.86445356       49.99700464  S
            atom         7.04944209        7.68703502       51.54549362  Mo
            atom         8.60372218        8.55909638       53.10030798  S
            atom         8.60078196        8.59170357       49.99699793  S
            atom         5.48255950       10.40043502       51.54549362  Mo
            atom         7.04925683       11.30469188       53.09098737  S
            atom         7.04925682       11.30469188       50.00000000  S
            atom         0.00000000        0.00000000       47.28885990  Ne
            atom         3.13177593        0.00000000       47.28885990  Ne
            atom         6.26355187        0.00000000       47.28885990  Ne
            atom         9.39532780       -0.00000000       47.28885990  Ne
            atom        12.52710374       -0.00000000       47.28885990  Ne
            atom         1.56588797        2.71219752       47.28885990  Ne
            atom         4.69766390        2.71219752       47.28885990  Ne
            atom         7.82943983        2.71219752       47.28885990  Ne
            atom        10.96121577        2.71219752       47.28885990  Ne
            atom        14.09299170        2.71219752       47.28885990  Ne
            atom         3.13177593        5.42439504       47.28885990  Ne
            atom         6.26355187        5.42439504       47.28885990  Ne
            atom         9.39532780        5.42439504       47.28885990  Ne
            atom        12.52710374        5.42439504       47.28885990  Ne
            atom        15.65887967        5.42439504       47.28885990  Ne
            atom         4.69766390        8.13659255       47.28885990  Ne
            atom         7.82943983        8.13659255       47.28885990  Ne
            atom        10.96121577        8.13659255       47.28885990  Ne
            atom        14.09299170        8.13659255       47.28885990  Ne
            atom        17.22476764        8.13659255       47.28885990  Ne
            atom         6.26355187       10.84879007       47.28885990  Ne
            atom         9.39532780       10.84879007       47.28885990  Ne
            atom        12.52710374       10.84879007       47.28885990  Ne
            atom        15.65887967       10.84879007       47.28885990  Ne
            atom        18.79065560       10.84879007       47.28885990  Ne

  Fractional coordinates:
                         L1                L2                L3
       atom_frac         0.93333070        0.96666844        0.50000000  Mo
       atom_frac         0.06666799        0.03333245        0.51499155  S
       atom_frac         0.06666799        0.03333245        0.48500845  S
       atom_frac         0.93333070        0.16666844        0.50000000  Mo
       atom_frac         0.06666799        0.23333245        0.51499155  S
       atom_frac         0.06666799        0.23333245        0.48500845  S
       atom_frac         0.93333070        0.36666844        0.50000000  Mo
       atom_frac         0.06666799        0.43333245        0.51499155  S
       atom_frac         0.06666799        0.43333245        0.48500845  S
       atom_frac         0.93333070        0.56666844        0.50000000  Mo
       atom_frac         0.06666799        0.63333245        0.51499155  S
       atom_frac         0.06666799        0.63333245        0.48500845  S
       atom_frac         0.93333070        0.76666844        0.50000000  Mo
       atom_frac         0.06666799        0.83333245        0.51499155  S
       atom_frac         0.06666799        0.83333245        0.48500845  S
       atom_frac         0.13333070        0.96666844        0.50000000  Mo
       atom_frac         0.26666799        0.03333245        0.51499155  S
       atom_frac         0.26666799        0.03333245        0.48500845  S
       atom_frac         0.13333070        0.16666844        0.50000000  Mo
       atom_frac         0.26666799        0.23333245        0.51499155  S
       atom_frac         0.26666799        0.23333245        0.48500845  S
       atom_frac         0.13333070        0.36666844        0.50000000  Mo
       atom_frac         0.26666799        0.43333245        0.51499155  S
       atom_frac         0.26666799        0.43333245        0.48500845  S
       atom_frac         0.13333070        0.56666844        0.50000000  Mo
       atom_frac         0.26666799        0.63333245        0.51499155  S
       atom_frac         0.26666799        0.63333245        0.48500845  S
       atom_frac         0.13333070        0.76666844        0.50000000  Mo
       atom_frac         0.26666799        0.83333245        0.51499155  S
       atom_frac         0.26666799        0.83333245        0.48500845  S
       atom_frac         0.33333070        0.96666844        0.50000000  Mo
       atom_frac         0.46666799        0.03333245        0.51499155  S
       atom_frac         0.46666799        0.03333245        0.48500845  S
       atom_frac         0.33333070        0.16666844        0.50000000  Mo
       atom_frac         0.46900557        0.23525017        0.51507926  S
       atom_frac         0.46734348        0.23505915        0.48497190  S
       atom_frac         0.33333070        0.36666844        0.50000000  Mo
       atom_frac         0.46900008        0.43375538        0.51507892  S
       atom_frac         0.46734500        0.43228589        0.48497212  S
       atom_frac         0.33333070        0.56666844        0.50000000  Mo
       atom_frac         0.46666799        0.63333245        0.51499155  S
       atom_frac         0.46666799        0.63333245        0.48500845  S
       atom_frac         0.33333070        0.76666844        0.50000000  Mo
       atom_frac         0.46666799        0.83333245        0.51499155  S
       atom_frac         0.46666799        0.83333245        0.48500845  S
       atom_frac         0.53333070        0.96666844        0.50000000  Mo
       atom_frac         0.66666799        0.03333245        0.51499155  S
       atom_frac         0.66666799        0.03333245        0.48500845  S
       atom_frac         0.53333070        0.16666844        0.50000000  Mo
       atom_frac         0.66622337        0.23529677        0.51507698  S
       atom_frac         0.66854021        0.23514891        0.48496823  S
       atom_frac         0.53333070        0.36666844        0.50000000  Mo
       atom_frac         0.66666799        0.43333245        0.48500845  S
       atom_frac         0.53333070        0.56666844        0.50000000  Mo
       atom_frac         0.66622391        0.63092646        0.51507684  S
       atom_frac         0.66854134        0.63339222        0.48496839  S
       atom_frac         0.53333070        0.76666844        0.50000000  Mo
       atom_frac         0.66666799        0.83333245        0.51499155  S
       atom_frac         0.66666799        0.83333245        0.48500845  S
       atom_frac         0.73333070        0.96666844        0.50000000  Mo
       atom_frac         0.86666799        0.03333245        0.51499155  S
       atom_frac         0.86666799        0.03333245        0.48500845  S
       atom_frac         0.73333070        0.16666844        0.50000000  Mo
       atom_frac         0.86666799        0.23333245        0.51499155  S
       atom_frac         0.86666799        0.23333245        0.48500845  S
       atom_frac         0.73333070        0.36666844        0.50000000  Mo
       atom_frac         0.86469465        0.43372997        0.51508176  S
       atom_frac         0.86570280        0.43234184        0.48497939  S
       atom_frac         0.73333070        0.56666844        0.50000000  Mo
       atom_frac         0.86468862        0.63095918        0.51508196  S
       atom_frac         0.86570286        0.63336270        0.48497933  S
       atom_frac         0.73333070        0.76666844        0.50000000  Mo
       atom_frac         0.86666799        0.83333245        0.51499155  S
       atom_frac         0.86666799        0.83333245        0.48500845  S
       atom_frac         0.00000000        0.00000000        0.45870993  Ne
       atom_frac         0.19990830        0.00001920        0.45870993  Ne
       atom_frac         0.39981659        0.00003841        0.45870993  Ne
       atom_frac         0.59972489        0.00005761        0.45870993  Ne
       atom_frac         0.79963319        0.00007681        0.45870993  Ne
       atom_frac         0.19992746        0.19993057        0.45870993  Ne
       atom_frac         0.39983576        0.19994977        0.45870993  Ne
       atom_frac         0.59974405        0.19996898        0.45870993  Ne
       atom_frac         0.79965235        0.19998818        0.45870993  Ne
       atom_frac         0.99956065        0.20000738        0.45870993  Ne
       atom_frac         0.39985492        0.39986114        0.45870993  Ne
       atom_frac         0.59976322        0.39988035        0.45870993  Ne
       atom_frac         0.79967151        0.39989955        0.45870993  Ne
       atom_frac         0.99957981        0.39991875        0.45870993  Ne
       atom_frac         1.19948811        0.39993795        0.45870993  Ne
       atom_frac         0.59978238        0.59979171        0.45870993  Ne
       atom_frac         0.79969068        0.59981092        0.45870993  Ne
       atom_frac         0.99959898        0.59983012        0.45870993  Ne
       atom_frac         1.19950727        0.59984932        0.45870993  Ne
       atom_frac         1.39941557        0.59986852        0.45870993  Ne
       atom_frac         0.79970984        0.79972229        0.45870993  Ne
       atom_frac         0.99961814        0.79974149        0.45870993  Ne
       atom_frac         1.19952644        0.79976069        0.45870993  Ne
       atom_frac         1.39943473        0.79977989        0.45870993  Ne
       atom_frac         1.59934303        0.79979910        0.45870993  Ne
------------------------------------------------------------

------------------------------------------------------------------------------
  Final output of selected total energy values:

  The following output summarizes some interesting total energy values
  at the end of a run (AFTER all relaxation, molecular dynamics, etc.).

  | Total energy of the DFT / Hartree-Fock s.c.f. calculation      :       -3401094.394690281 eV
  | Final zero-broadening corrected energy (caution - metals only) :       -3401094.422939875 eV
  | For reference only, the value of 1 Hartree used in FHI-aims is :             27.211384500 eV
  | For reference only, the overall average (free atom contribution
  | + realspace contribution) of the electrostatic potential after
  | s.c.f. convergence is                                          :             -1.192710130 eV

  Before relying on these values, please be sure to understand exactly which
  total energy value is referred to by a given number. Different objects may
  all carry the same name 'total energy'. Definitions:

  Total energy of the DFT / Hartree-Fock s.c.f. calculation:
  | Note that this energy does not include ANY quantities calculated after the
  | s.c.f. cycle, in particular not ANY RPA, MP2, etc. many-body perturbation terms.

  Final zero-broadening corrected energy:
  | For metallic systems only, a broadening of the occupation numbers at the Fermi
  | level can be extrapolated back to zero broadening by an electron-gas inspired
  | formula. For all systems that are not real metals, this value can be
  | meaningless and should be avoided.

------------------------------------------------------------------------------
  Methods described in the following list of references were used in this FHI-aims run.
  If you publish the results, please make sure to cite these reference if they apply.
  FHI-aims is an academic code, and for our developers (often, Ph.D. students
  and postdocs), scientific credit in the community is essential.
  Thank you for helping us!

  For any use of FHI-aims, please cite:

    Volker Blum, Ralf Gehrke, Felix Hanke, Paula Havu, Ville Havu,
    Xinguo Ren, Karsten Reuter, and Matthias Scheffler
    'Ab initio molecular simulations with numeric atom-centered orbitals'
    Computer Physics Communications 180, 2175-2196 (2009)
    http://doi.org/10.1016/j.cpc.2009.06.022


  For Hartree-Fock, hybrid functionals, or many-body perturbation theory used in your run, please cite:

    Xinguo Ren, Patrick Rinke, Volker Blum, Juergen Wieferink, Alex Tkatchenko,
    Andrea Sanfilippo, Karsten Reuter, and Matthias Scheffler,
    'Resolution-of-identity approach to Hartree-Fock, hybrid density functionals,
    RPA, MP2, and GW with numeric atom-centered orbital basis functions'
    New Journal of Physics 14, 053020 (2012).
    http://doi.org/10.1088/1367-2630/14/5/053020


  The provided symmetry information was generated with SPGlib:

    Atsushi Togo, Yusuke Seto, Dimitar Pashov
    SPGlib 1.7.3 obtained from http://spglib.sourceforge.net
    Copyright (C) 2008 Atsushi Togo


  The ELSI infrastructure was used in your run to solve the Kohn-Sham electronic structure.
  Please check out http://elsi-interchange.org to learn more.
  If scalability is important for your project, please acknowledge ELSI by citing:

    V. W-z. Yu, F. Corsetti, A. Garcia, W. P. Huhn, M. Jacquelin, W. Jia,
    B. Lange, L. Lin, J. Lu, W. Mi, A. Seifitokaldani, A. Vazquez-Mayagoitia,
    C. Yang, H. Yang, and V. Blum
    'ELSI: A unified software interface for Kohn-Sham electronic structure solvers'
    Computer Physics Communications 222, 267-285 (2018).
    http://doi.org/10.1016/j.cpc.2017.09.007


  For the real-space grid partitioning and parallelization used in this calculation, please cite:

    Ville Havu, Volker Blum, Paula Havu, and Matthias Scheffler,
    'Efficient O(N) integration for all-electron electronic structure calculation'
    'using numerically tabulated basis functions'
    Journal of Computational Physics 228, 8367-8379 (2009).
    http://doi.org/10.1016/j.jcp.2009.08.008


  The high-level electronic structure method used in your calculation
  employed our efficient localized resolution of identity for the Coulomb operator.
  Some calculations, especially large-scale hybrid density functional theory,
  are only possible thanks to this development. For this feature, please cite:

    Arvid Ihrig, Juergen Wieferink, Igor Ying Zhang, Matti Ropo, Xinguo Ren,
    Patrick Rinke, Matthias Scheffler, and Volker Blum,
    'Accurate localized resolution of identity approach for linear-scaling
    hybrid density functionals and for many-body perturbation theory'
    New Journal of Physics 117, 093020 (2015).
    http://doi.org/10.1088/1367-2630/17/9/093020

  Of course, there are many other important community references, e.g., those cited in the
  above references. Our list is limited to references that describe implementations in the
  FHI-aims code. The reason is purely practical (length of this list) - please credit others as well.

------------------------------------------------------------
          Leaving FHI-aims.
          Date     :  20221025, Time     :  114059.334

          Computational steps:
          | Number of self-consistency cycles          :           42
          | Number of SCF (re)initializations          :            1
          | Number of relaxation steps                 :            0

          Detailed time accounting                     :  max(cpu_time)    wall_clock(cpu1)
          | Total time                                  :     2544.106 s        2547.164 s
          | Preparation time                            :        1.163 s           1.195 s
          | Boundary condition initalization            :        1.032 s           1.033 s
          | Grid partitioning                           :        2.181 s           2.163 s
          | Preloading free-atom quantities on grid     :        0.503 s           0.504 s
          | Free-atom superposition energy              :        0.088 s           0.088 s
          | Total time for integrations                 :       44.674 s          44.693 s
          | Product basis setup: Total time             :       85.896 s          86.033 s
          | Total time evaluating exchange matrix       :     2124.184 s        2121.840 s
          | Total time for solution of K.-S. equations  :      105.088 s         105.120 s
          | Total time for EV reorthonormalization      :        0.000 s           0.000 s
          | Total time for density & force components   :      110.051 s         110.099 s
          | Total time for mixing                       :        0.268 s           0.257 s
          | Total time for Hartree multipole update     :        0.761 s           0.758 s
          | Total time for Hartree multipole sum        :       60.244 s          60.265 s
          | Total time for total energy evaluation      :        0.041 s           0.136 s
          | Total time NSC force correction             :        2.750 s           2.752 s
          | Total time for scaled ZORA corrections      :        0.000 s           0.000 s
          | Total time for vdW correction               :        4.668 s           4.533 s

          Partial memory accounting:
          | Residual value for overall tracked memory usage across tasks:     0.000000 MB (should be 0.000000 MB)
          | Peak values for overall tracked memory usage:
          |   Minimum:     1818.862 MB (on task 285 after allocating ovlp3fn2)
          |   Maximum:     2826.810 MB (on task 167 after allocating ovlp3fn2)
          |   Average:     2183.486 MB
          | Largest tracked array allocation:
          |   Minimum:      417.145 MB (ovlp3fn2 on task  33)
          |   Maximum:      644.748 MB (ovlp3fn2 on task  23)
          |   Average:      497.059 MB
          Note:  These values currently only include a subset of arrays which are explicitly tracked.
          The "true" memory usage will be greater.

          Have a nice day.
------------------------------------------------------------
