------------------------------------------------------------
          Invoking FHI-aims ...

          When using FHI-aims, please cite the following reference:

            Volker Blum, Ralf Gehrke, Felix Hanke, Paula Havu,
            Ville Havu, Xinguo Ren, Karsten Reuter, and Matthias Scheffler,
            'Ab Initio Molecular Simulations with Numeric Atom-Centered Orbitals',
            Computer Physics Communications 180, 2175-2196 (2009)

          In addition, many other developments in FHI-aims are likely important for
          your particular application. A partial list of references is given at the end of
          this file. Thank you for giving credit to the authors of these developments.

          For any questions about FHI-aims, please visit our slack channel at

            https://fhi-aims.slack.com

          and our main development and support site at

            https://aims-git.rz-berlin.mpg.de .

          The latter site, in particular, has a wiki to collect information, as well
          as an issue tracker to log discussions, suggest improvements, and report issues
          or bugs. https://aims-git.rz-berlin.mpg.de is also the main development site
          of the project and all new and updated code versions can be obtained there.
          Please send an email to aims-coordinators@fhi-berlin.mpg.de and we will add
          you to these sites. They are for you and everyone is welcome there.

------------------------------------------------------------



  Date     :  20221009, Time     :  230350.095
  Time zero on CPU 1             :   0.656531000000000E+00  s.
  Internal wall clock time zero  :           434588630.095  s.

  FHI-aims created a unique identifier for this run for later identification
  aims_uuid : 46AE3844-AEEB-47AE-A471-07D5739BAD7A

  Build configuration of the current instance of FHI-aims
  -------------------------------------------------------
  FHI-aims version      : 220429
  Commit number         : 4d0c1dd69
  CMake host system     : Linux-5.3.18-150300.59.87-default
  CMake version         : 3.22.4
  Fortran compiler      : /mpcdf/soft/SLE_15/packages/x86_64/intel_oneapi/2022.1/mpi/2021.5.1/bin/mpiifort (Intel) version 2021.5.0.20211109
  Fortran compiler flags: -O3 -ip -fp-model precise
  C compiler            : /mpcdf/soft/SLE_15/packages/x86_64/intel/2021.5.0/bin/icc (Intel) version 2021.5.0.20211109
  C compiler flags      : -O3 -ip -fp-model precise -std=gnu99
  CUDA compiler         : /mpcdf/soft/SLE_15/packages/x86_64/cuda/11.6.2/bin/nvcc
  CUDA compiler flags   : -O3 -DAdd_ -lcublas
  ELPA2 kernel          : AVX512
  Using MPI
  Using ScaLAPACK
  Using LibXC
  Using CUDA
  Using i-PI
  Using RLSY
  Linking against: /mpcdf/soft/SLE_15/packages/x86_64/cuda/11.6.2/lib64/libcublas.so
                   /mpcdf/soft/SLE_15/packages/x86_64/cuda/11.6.2/lib64/libcudart.so
                   /mpcdf/soft/SLE_15/packages/x86_64/intel_oneapi/2021.3/mkl/latest/lib/intel64/libmkl_intel_lp64.so
                   /mpcdf/soft/SLE_15/packages/x86_64/intel_oneapi/2021.3/mkl/latest/lib/intel64/libmkl_sequential.so
                   /mpcdf/soft/SLE_15/packages/x86_64/intel_oneapi/2021.3/mkl/latest/lib/intel64/libmkl_core.so
                   /mpcdf/soft/SLE_15/packages/x86_64/intel_oneapi/2021.3/mkl/latest/lib/intel64/libmkl_blacs_intelmpi_lp64.so
                   /mpcdf/soft/SLE_15/packages/x86_64/intel_oneapi/2021.3/mkl/latest/lib/intel64/libmkl_scalapack_lp64.so

  Using       16 parallel tasks.
  Task        0 on host adag020 reporting.
  Task        1 on host adag020 reporting.
  Task        2 on host adag020 reporting.
  Task        3 on host adag020 reporting.
  Task        4 on host adag021 reporting.
  Task        5 on host adag021 reporting.
  Task        6 on host adag021 reporting.
  Task        7 on host adag021 reporting.
  Task        8 on host adag035 reporting.
  Task        9 on host adag035 reporting.
  Task       10 on host adag035 reporting.
  Task       11 on host adag035 reporting.
  Task       12 on host adag036 reporting.
  Task       13 on host adag036 reporting.
  Task       14 on host adag036 reporting.
  Task       15 on host adag036 reporting.

  Performing system and environment tests:
  | Environment variable OMP_NUM_THREADS correctly set to 1.
  | Checking for ScaLAPACK...
  | Testing pdtran()...
  | All pdtran() tests passed.

  Obtaining array dimensions for all initial allocations:
  
  -----------------------------------------------------------------------
  Parsing control.in (first pass over file, find array dimensions only).
  The contents of control.in will be repeated verbatim below
  unless switched off by setting 'verbatim_writeout .false.' .
  in the first line of control.in .
  -----------------------------------------------------------------------
  
  ##### Physical settings  ################
  xc                 pw-lda
  spin               none
  #default_initial_moment 1
  charge      0.0
  relativistic       atomic_zora scalar
  #elsi_restart read
  # SCF settings
  # Turns on GPU acceleration everywhere
  #  use_gpu
  
  # Turns OFF GPU acceleration of ELPA - may be necessary if GPU ELPA is slow
    elsi_elpa_gpu 0
  #relax_unit_cell full
  occupation_type gaussian       0.01
  #DFPT polarizability
  #many_body_dispersion_nl    beta=0.81
  
  #final_forces_cleaned               .true.
  #compute_forces                     .true.
  
  #DFPT local_polarizability nearfield
  #DFPT local_parameters numerical zeros.cube zeros.cube tipA_05_vh_ft_0049_3221meV_x1000.cube
  #
  #
  #DFPT_mixing 0.1
  #DFPT_sc_accuracy_dm 1e-2
  #dfpt_pulay_steps
  ################################################################################
  #
  #  FHI-aims code project
  # Volker Blum, Fritz Haber Institute Berlin, 2009
  #
  #  Suggested "tight" defaults for S atom (to be pasted into control.in file)
  #
  #  Revised Jan 04, 2011, following tests (SiC) done by Lydia Nemec:
  #     d and g functions of tier 2 now enabled by default.
  #
  ################################################################################
    species        S
  #     global species definitions
      nucleus             16
      mass                32.065
  #
      l_hartree           6
  #
      cut_pot             5.0          2.0  1.0
      basis_dep_cutoff    1e-4
  #
      radial_base         44 7.0
      radial_multiplier   2
      angular_grids       specified
        division   0.4665  110
        division   0.5810  194
        division   0.7139  302
        division   0.8274  434
  #      division   0.9105  590
  #      division   1.0975  770
  #      division   1.2028  974
  #      outer_grid  974
        outer_grid  434
  ################################################################################
  #
  #  Definition of "minimal" basis
  #
  ################################################################################
  #     valence basis states
      valence      3  s   2.
      valence      3  p   4.
  #     ion occupancy
      ion_occ      3  s   1.
      ion_occ      3  p   3.
  ################################################################################
  #
  #  Suggested additional basis functions. For production calculations,
  #  uncomment them one after another (the most important basis functions are
  #  listed first).
  #
  #  Constructed for dimers: 1.6 A, 1.9 A, 2.5 A, 3.25 A, 4.0 A
  #
  ################################################################################
  #  "First tier" - improvements: -652.81 meV to -45.53 meV
       ionic 3 d auto
       hydro 2 p 1.8
       hydro 4 f 7
       ionic 3 s auto
  #  "Second tier" - improvements: -30.20 meV to -1.74 meV
       hydro 4 d 6.2
       hydro 5 g 10.8
  #     hydro 4 p 4.9
  #     hydro 5 f 10
  #     hydro 1 s 0.8
  #  "Third tier" - improvements: -1.04 meV to -0.20 meV
  #     hydro 3 d 3.9
  #     hydro 3 d 2.7
  #     hydro 5 g 12
  #     hydro 4 p 10.4
  #     hydro 5 f 12.4
  #     hydro 2 s 1.9
  #  "Fourth tier" - improvements: -0.35 meV to -0.06 meV
  #     hydro 4 d 10.4
  #     hydro 4 p 7.2
  #     hydro 4 d 10
  #     hydro 5 g 19.2
  #     hydro 4 s 12
  
  ################################################################################
  #
  # For methods that use the localized form of the "resolution of identity" for
  # the two-electron Coulomb operator (RI_method LVL), particularly Hartree-Fock and
  # hybrid density functional calculations, the highest accuracy can be obtained by
  # uncommenting the line beginning with "for_aux"  below, thus adding an extra g radial
  # function to the construction of the product basis set for the expansion.
  # See Ref. New J. Phys. 17, 093020 (2015) for more information, particularly Figs. 1 and 6.
  #
  ################################################################################
  #
  # for_aux hydro 5 g 6.0
  ################################################################################
  #
  #  FHI-aims code project
  # Volker Blum, Fritz Haber Institute Berlin, 2009
  #
  #  Suggested "tight" defaults for Mo atom (to be pasted into control.in file)
  #
  ################################################################################
    species        Mo
  #     global species definitions
      nucleus             42
      mass                95.94
  #
      l_hartree           6
  #
      cut_pot             5.0  2.0  1.0
      basis_dep_cutoff    1e-4
  #
      radial_base         59 7.0
      radial_multiplier   2
      angular_grids specified
        division   0.3117   50
        division   0.6750  110
        division   1.0351  194
        division   1.2073  302
        division   1.6402  434
  #      division   1.9185  590
  #      division   2.0237  770
  #      division   2.0980  974
  #      division   2.7972 1202
  #      outer_grid  974
        outer_grid  434
  ################################################################################
  #
  #  Definition of "minimal" basis
  #
  ################################################################################
  #     valence basis states
      valence      5  s   1.
      valence      4  p   6.
      valence      4  d   5.
  #     ion occupancy
      ion_occ     5  s   0.
      ion_occ     4  p   6.
      ion_occ     4  d   4.
  ################################################################################
  #
  #  Suggested additional basis functions. For production calculations,
  #  uncomment them one after another (the most important basis functions are
  #  listed first).
  #
  #  Constructed for dimers: 1.675 A, 1.9 A, 2.375 A, 3.00 A, 4.00 A
  #
  ################################################################################
  #  "First tier"  - max. impr. -711.23  meV, min. impr. -21.07 meV
       hydro 4 f 8.4
       hydro 3 d 2.8
       ionic 5 p auto
       hydro 5 g 12
       ionic 5 s auto
  #  "Second tier" - max. impr. -39.38  meV, min. impr. -2.68 meV
  #     hydro 4 f 12.4
  #     hydro 3 d 3.3
  #     hydro 6 h 17.2
  #     hydro 4 f 7.6
  #     hydro 3 p 3.0
  #     hydro 1 s 0.65
  #  "Third tier"  - max. impr. -5.50 meV, min. impr. -0.47 meV
  #     hydro 4 f 29.2
  #     hydro 5 g 11.2
  #     hydro 3 d 6.8
  #     hydro 6 h 14.8
  #     hydro 2 p 2.3
  #     hydro 4 s 3.8
  #  "Fourth tier"  - max. impr. -0.58 meV, min. impr. -0.19 meV
  #     hydro 5 f 6.8
  #     hydro 5 d 14.8
  #     hydro 6 s 7.8
  #     hydro 5 g 20.8
  #     hydro 5 d 10.4
  #     hydro 5 p 9.8
  #  Further functions - -0.17 meV and below
  #     hydro 5 d 3.2
  ################################################################################
  #
  #  FHI-aims code project
  #  Volker Blum, Fritz Haber Institute Berlin, 2009
  #
  #  Suggested "tight" defaults for H atom (to be pasted into control.in file)
  #
  ################################################################################
    species        H
  #     global species definitions
      nucleus             1.0
      mass                1.00794
  #
      l_hartree           6
  #
      cut_pot             4.0  2.0  1.0
      basis_dep_cutoff    1e-4
  #
      radial_base         24 7.0
      radial_multiplier   2
      angular_grids       specified
        division   0.1930   50
        division   0.3175  110
        division   0.4293  194
        division   0.5066  302
        division   0.5626  434
  #      division   0.5922  590
  #      division   0.6227  974
  #      division   0.6868 1202
  #      outer_grid  770
        outer_grid  434
  ################################################################################
  #
  #  Definition of "minimal" basis
  #
  ################################################################################
  #     valence basis states
      valence      1  s   1.0
  #     ion occupancy
      ion_occ      1  s   0.5
  ################################################################################
  #
  #  Suggested additional basis functions. For production calculations,
  #  uncomment them one after another (the most important basis functions are
  #  listed first).
  #
  #  Basis constructed for dimers: 0.5 A, 0.7 A, 1.0 A, 1.5 A, 2.5 A
  #
  ################################################################################
  #  "First tier" - improvements: -1014.90 meV to -62.69 meV
       hydro 2 s 2.1
       hydro 2 p 3.5
  #  "Second tier" - improvements: -12.89 meV to -1.83 meV
       hydro 1 s 0.85
       hydro 2 p 3.7
       hydro 2 s 1.2
       hydro 3 d 7
  #  "Third tier" - improvements: -0.25 meV to -0.12 meV
  #     hydro 4 f 11.2
  #     hydro 3 p 4.8
  #     hydro 4 d 9
  #     hydro 3 s 3.2
  ################################################################################
  #
  # For methods that use the localized form of the "resolution of identity" for
  # the two-electron Coulomb operator (RI_method LVL), particularly Hartree-Fock and
  # hybrid density functional calculations, the highest accuracy can be obtained by
  # uncommenting the line beginning with "for_aux"  below, thus adding an extra g radial
  # function to the construction of the product basis set for the expansion.
  # See Ref. New J. Phys. 17, 093020 (2015) for more information, particularly Figs. 1 and 6.
  #
  ################################################################################
  #
  # for_aux hydro 5 g 6.0
  DFPT local_polarizability nearfield
   DFPT local_parameters numerical zeros.cube zeros.cube tipA_05_vh_ft_0049_3221meV_x1000.cube
  
  -----------------------------------------------------------------------
  Completed first pass over input file control.in .
  -----------------------------------------------------------------------
  
  
  -----------------------------------------------------------------------
  Parsing geometry.in (first pass over file, find array dimensions only).
  The contents of geometry.in will be repeated verbatim below
  unless switched off by setting 'verbatim_writeout .false.' .
  in the first line of geometry.in .
  -----------------------------------------------------------------------
  
  atom -5.34330910 -11.98144205 -5.97227826 S
  atom -5.56293902 -12.16632439 -8.84999963 S
  atom -7.46897652 -9.57689435 -6.55214975 S
  atom -6.89797178 -9.24680756 -9.22793563 S
  atom -8.49260785 -6.53388053 -5.97330724 S
  atom -8.75861443 -6.62837844 -8.85233874 S
  atom -3.65592875 -12.83157739 -7.57743333 Mo
  atom -2.15296146 -12.06536414 -5.97778932 S
  atom -2.18403565 -12.08194050 -9.18988499 S
  atom -5.27554820 -10.03090692 -7.59222361 Mo
  atom -3.75700020 -9.21041509 -6.02655023 S
  atom -3.73893606 -9.30960483 -9.18709119 S
  atom -6.77151512 -7.44895079 -7.59181352 Mo
  atom -5.30586268 -6.54330976 -6.02745113 S
  atom -5.37871505 -6.47136567 -9.18240392 S
  atom -8.37425199 -4.64793389 -7.57697190 Mo
  atom -6.96247111 -3.72496807 -5.97328287 S
  atom -6.99167688 -3.74762182 -9.19275725 S
  atom -0.61158264 -12.83635989 -7.58573505 Mo
  atom 0.99911193 -12.10322592 -6.02684860 S
  atom 0.98519621 -12.12849195 -9.16316171 S
  atom -2.19204588 -10.20791933 -7.59543073 Mo
  atom -0.58801792 -9.25277925 -6.09519084 S
  atom -0.59265855 -9.30720580 -9.14539795 S
  atom -3.78428753 -7.44001674 -7.64683211 Mo
  atom -2.15773526 -6.46894852 -6.13831727 S
  atom -2.20309584 -6.49887711 -9.19602780 S
  atom -5.37433128 -4.68692725 -7.59183677 Mo
  atom -3.70625851 -3.75958770 -6.10488817 S
  atom -3.79521556 -3.77532349 -9.16659946 S
  atom -6.85647948 -2.01153720 -7.58644017 Mo
  atom -5.39870548 -1.00229528 -6.03629233 S
  atom -5.45244004 -0.97142808 -9.16926626 S
  atom 2.59774631 -12.83668651 -7.59140660 Mo
  atom 4.16471672 -12.06941114 -5.99321746 S
  atom 4.14477516 -12.08695313 -9.20558223 S
  atom 0.99128609 -10.22067348 -7.60888329 Mo
  atom 2.56324759 -9.28766875 -6.07978514 S
  atom 2.57626314 -9.29060872 -9.13964963 S
  atom -0.60319634 -7.42064639 -7.65884586 Mo
  atom 0.94104180 -6.46555840 -6.12194443 S
  atom 1.01071187 -6.51015620 -9.18238495 S
  atom -2.16431781 -4.66010821 -7.67944477 Mo
  atom -0.60978829 -3.76707229 -9.21229694 S
  atom -3.77711571 -1.93859100 -7.63283177 Mo
  atom -2.16475388 -1.08937427 -6.10489028 S
  atom -2.19530567 -1.00440500 -9.16652759 S
  atom -5.25347366 0.76467194 -7.58646979 Mo
  atom -3.82258227 1.71340501 -5.97336683 S
  atom -3.81763080 1.74950259 -9.19299050 S
  atom 5.64440329 -12.83339078 -7.59543920 Mo
  atom 7.53877988 -12.16158719 -6.30768385 S
  atom 7.35027117 -11.99807563 -9.18907928 S
  atom 4.17355463 -10.21388452 -7.60654349 Mo
  atom 5.70948186 -9.30639105 -6.01032166 S
  atom 5.76296212 -9.23477512 -9.16482773 S
  atom 2.57440732 -7.44145513 -7.60992579 Mo
  atom 4.14912742 -6.51473908 -6.06106402 S
  atom 4.18379837 -6.53490644 -9.11710115 S
  atom 0.94690266 -4.66593705 -7.67956308 Mo
  atom 2.50253694 -3.76118831 -6.12192060 S
  atom 2.57590762 -3.79902341 -9.18236059 S
  atom -0.61377454 -1.97446006 -7.67926747 Mo
  atom 0.95601009 -1.07602755 -6.13797164 S
  atom 0.95929049 -1.02107783 -9.19549948 S
  atom -2.19524825 0.81902971 -7.59182846 Mo
  atom -0.55435773 1.68734122 -6.02631920 S
  atom -0.65132217 1.71540590 -9.18218606 S
  atom -3.72944412 3.39720080 -7.57708590 Mo
  atom -2.15670079 4.44567843 -5.97441306 S
  atom -2.20620154 4.71883296 -8.85344076 S
  atom 7.26738118 -10.03973193 -7.58182215 Mo
  atom 8.87049843 -9.24025382 -5.93477369 S
  atom 9.46969152 -9.58619220 -8.60452905 S
  atom 5.76883825 -7.44998899 -7.56303397 Mo
  atom 7.34703676 -6.46990094 -6.01062975 S
  atom 7.31067824 -6.55234581 -9.16506127 S
  atom 4.16432206 -4.68768590 -7.61000081 Mo
  atom 5.75767048 -3.75490283 -6.07993851 S
  atom 5.76646141 -3.76458995 -9.13990771 S
  atom 2.55755666 -1.94619579 -7.65869641 Mo
  atom 4.15200015 -1.04350308 -6.09514882 S
  atom 4.19649163 -1.01197658 -9.14534257 S
  atom 0.98374562 0.81867841 -7.64593628 Mo
  atom 2.53115879 1.67889674 -6.02529731 S
  atom 2.62486128 1.71435986 -9.18670768 S
  atom -0.50312977 3.40930936 -7.59040243 Mo
  atom 0.99235616 5.06952073 -6.54013354 S
  atom 0.99195275 4.42375457 -9.22171376 S
  atom 8.76065161 -7.45242125 -7.58233794 Mo
  atom 10.73696703 -6.62799313 -6.31132779 S
  atom 10.49292469 -6.54237234 -9.19289107 S
  atom 7.36471250 -4.68614166 -7.60691197 Mo
  atom 8.96763162 -3.75117717 -5.99355311 S
  atom 8.97223542 -3.72417481 -9.20588670 S
  atom 5.77977146 -1.92705323 -7.60898200 Mo
  atom 7.41408912 -0.99272725 -6.02687325 S
  atom 7.42886577 -0.96767567 -9.16317692 S
  atom 4.17683494 0.82333353 -7.59523744 Mo
  atom 5.80537757 1.71785256 -5.97764157 S
  atom 5.80396048 1.75327683 -9.18985281 S
  atom 2.48312692 3.40438213 -7.59049520 Mo
  atom 4.13879036 4.43746126 -5.97078716 S
  atom 4.18795779 4.72214644 -8.84862437 S
  atom 10.36886583 -4.65014981 -7.59574885 Mo
  atom 8.84867776 -2.01013007 -7.59150534 Mo
  atom 7.24377013 0.76898397 -7.58565476 Mo
  atom 5.71764685 3.40267332 -7.57729970 Mo
  atom -3.40791588 -14.24894725 -6.63908704 H
  atom -3.43277007 -14.24724184 -8.54770994 H
  atom -9.48264332 -3.72909484 -6.64054147 H
  atom -9.49329537 -3.75599067 -8.55106782 H
  atom -0.49327603 -14.30461460 -6.65649751 H
  atom -0.55306599 -14.31368035 -8.50844154 H
  atom -8.07115052 -1.18455706 -6.64919982 H
  atom -8.11158124 -1.21680118 -8.50047473 H
  atom 2.54176498 -14.29971771 -6.64547964 H
  atom 2.49243398 -14.31876484 -8.49787589 H
  atom -6.57654420 1.40383444 -6.64902742 H
  atom -6.56968830 1.45399501 -8.50020537 H
  atom 5.41448106 -14.23937903 -6.61994229 H
  atom 5.41053059 -14.25874846 -8.52682988 H
  atom -5.07872327 3.89869673 -6.64028476 H
  atom -5.06154659 3.91957295 -8.55081173 H
  atom 11.47360469 -3.75018872 -6.61948402 H
  atom 11.48545551 -3.73352216 -8.52647779 H
  atom 10.08809593 -1.23092158 -6.64535554 H
  atom 10.07915782 -1.17711282 -8.49773450 H
  atom 8.57459760 1.40046068 -6.65637345 H
  atom 8.55244052 1.45754145 -8.50816408 H
  atom 7.06884481 3.89674485 -6.63885644 H
  atom 7.05495157 3.91850286 -8.54756997 H
  atom -2.11981857 5.76265347 -6.40957657 H
  atom 0.99504095 6.21816994 -7.31950458 H
  atom 4.11008987 5.75758295 -6.39806983 H
  atom 10.47714555 -6.44401946 -4.98424041 H
  atom 8.09970411 -8.79547677 -4.89842033 H
  atom 7.24569801 -12.02521126 -4.98178827 H
  atom -6.50035073 -12.61711392 -6.40052307 H
  atom -8.45760544 -10.15044490 -7.34024698 H
  atom -9.61596113 -7.22321169 -6.40632969 H
  atom -8.50954166 -6.44936241 -10.18252455 H
  atom -6.13851365 -8.81188424 -10.27700500 H
  atom -5.28009387 -12.04680668 -10.18011102 H
  atom 8.50368835 -12.62919694 -8.74504244 H
  atom 10.45142148 -10.15270959 -7.80312265 H
  atom 11.61769752 -7.22558057 -8.75352387 H
  atom 4.22564466 4.42024548 -10.17943447 H
  atom 0.99491903 3.55413137 -10.27575603 H
  atom -2.23559495 4.41286860 -10.18351569 H
  
  -----------------------------------------------------------------------
  Completed first pass over input file geometry.in .
  -----------------------------------------------------------------------
  

  Basic array size parameters:
  | Number of species                 :        3
  | Number of atoms                   :      150
  | Max. basis fn. angular momentum   :        4
  | Max. atomic/ionic basis occupied n:        5
  | Max. number of basis fn. types    :        3
  | Max. radial fns per species/type  :       10
  | Max. logarithmic grid size        :     1436
  | Max. radial integration grid size :      119
  | Max. angular integration grid size:      434
  | Max. angular grid division number :        8
  | Radial grid for Hartree potential :     1436
  | Number of spin channels           :        1

------------------------------------------------------------
          Reading file control.in.
------------------------------------------------------------
  XC: Using Perdew-Wang parametrisation of Ceperley-Alder LDA.
  Spin treatment: No spin polarisation.
  Charge =   0.000000E+00: Neutral system requested explicitly.
  Scalar relativistic treatment of kinetic energy: on-site free-atom approximation to ZORA.
  Occupation type: Gaussian broadening, width =   0.100000E-01 eV.
 
  Reading configuration options for species S                   .
  | Found nuclear charge :  16.0000
  | Found atomic mass :    32.0650000000000      amu
  | Found l_max for Hartree potential  :   6
  | Found cutoff potl. onset [A], width [A], scale factor :    5.00000    2.00000    1.00000
  | Threshold for basis-dependent cutoff potential is   0.100000E-03
  | Found data for basic radial integration grid :    44 points, outermost radius =    7.000 A
  | Found multiplier for basic radial grid :   2
  | Found angular grid specification: user-specified.
  | Specified grid contains     5 separate shells.
  | Check grid settings after all constraints further below.
  | Found free-atom valence shell :  3 s   2.000
  | Found free-atom valence shell :  3 p   4.000
  | Found free-ion valence shell :  3 s   1.000
  | Found free-ion valence shell :  3 p   3.000
  | Found ionic basis function :  3 d , default cutoff radius.
  | Found hydrogenic basis function :  2 p   1.800
  | Found hydrogenic basis function :  4 f   7.000
  | Found ionic basis function :  3 s , default cutoff radius.
  | Found hydrogenic basis function :  4 d   6.200
  | Found hydrogenic basis function :  5 g  10.800
  Species S                   : Missing cutoff potential type.
  Defaulting to exp(1/x)/(1-x)^2 type cutoff potential.
  Species S : No 'logarithmic' tag. Using default grid for free atom:
  | Default logarithmic grid data [bohr] : 0.1000E-03 0.1000E+03 0.1012E+01
  | Will include ionic basis functions of  2.0-fold positive S                    ion.
  Species S : On-site basis accuracy parameter (for Gram-Schmidt orthonormalisation) not specified.
  Using default value basis_acc =  0.1000000E-03.
  Species S                   : Using default innermost maximum threshold i_radial=  2 for radial functions.
  Species S                   : Default cutoff onset for free atom density etc. : 0.50000000E+01 AA.
  Species S                   : Basic radial grid will be enhanced according to radial_multiplier =   2, to contain    89 grid points.
 
  Reading configuration options for species Mo                  .
  | Found nuclear charge :  42.0000
  | Found atomic mass :    95.9400000000000      amu
  | Found l_max for Hartree potential  :   6
  | Found cutoff potl. onset [A], width [A], scale factor :    5.00000    2.00000    1.00000
  | Threshold for basis-dependent cutoff potential is   0.100000E-03
  | Found data for basic radial integration grid :    59 points, outermost radius =    7.000 A
  | Found multiplier for basic radial grid :   2
  | Found angular grid specification: user-specified.
  | Specified grid contains     6 separate shells.
  | Check grid settings after all constraints further below.
  | Found free-atom valence shell :  5 s   1.000
  | Found free-atom valence shell :  4 p   6.000
  | Found free-atom valence shell :  4 d   5.000
  | Found free-ion valence shell :  5 s   0.000
  | Found free-ion valence shell :  4 p   6.000
  | Found free-ion valence shell :  4 d   4.000
  | Found hydrogenic basis function :  4 f   8.400
  | Found hydrogenic basis function :  3 d   2.800
  | Found ionic basis function :  5 p , default cutoff radius.
  | Found hydrogenic basis function :  5 g  12.000
  | Found ionic basis function :  5 s , default cutoff radius.
  Species Mo                  : Missing cutoff potential type.
  Defaulting to exp(1/x)/(1-x)^2 type cutoff potential.
  Species Mo: No 'logarithmic' tag. Using default grid for free atom:
  | Default logarithmic grid data [bohr] : 0.1000E-03 0.1000E+03 0.1012E+01
  | Will include ionic basis functions of  2.0-fold positive Mo                   ion.
  Species Mo: On-site basis accuracy parameter (for Gram-Schmidt orthonormalisation) not specified.
  Using default value basis_acc =  0.1000000E-03.
  Species Mo                  : Using default innermost maximum threshold i_radial=  2 for radial functions.
  Species Mo                  : Default cutoff onset for free atom density etc. : 0.50000000E+01 AA.
  Species Mo                  : Basic radial grid will be enhanced according to radial_multiplier =   2, to contain   119 grid points.
 
  Reading configuration options for species H                   .
  | Found nuclear charge :   1.0000
  | Found atomic mass :    1.00794000000000      amu
  | Found l_max for Hartree potential  :   6
  | Found cutoff potl. onset [A], width [A], scale factor :    4.00000    2.00000    1.00000
  | Threshold for basis-dependent cutoff potential is   0.100000E-03
  | Found data for basic radial integration grid :    24 points, outermost radius =    7.000 A
  | Found multiplier for basic radial grid :   2
  | Found angular grid specification: user-specified.
  | Specified grid contains     6 separate shells.
  | Check grid settings after all constraints further below.
  | Found free-atom valence shell :  1 s   1.000
  | Found free-ion valence shell :  1 s   0.500
  | Found hydrogenic basis function :  2 s   2.100
  | Found hydrogenic basis function :  2 p   3.500
  | Found hydrogenic basis function :  1 s   0.850
  | Found hydrogenic basis function :  2 p   3.700
  | Found hydrogenic basis function :  2 s   1.200
  | Found hydrogenic basis function :  3 d   7.000
  Species H                   : Missing cutoff potential type.
  Defaulting to exp(1/x)/(1-x)^2 type cutoff potential.
  Species H : No 'logarithmic' tag. Using default grid for free atom:
  | Default logarithmic grid data [bohr] : 0.1000E-03 0.1000E+03 0.1012E+01
  Species H : On-site basis accuracy parameter (for Gram-Schmidt orthonormalisation) not specified.
  Using default value basis_acc =  0.1000000E-03.
  Species H                   : Using default innermost maximum threshold i_radial=  2 for radial functions.
  Species H                   : Default cutoff onset for free atom density etc. : 0.40000000E+01 AA.
  Species H                   : Basic radial grid will be enhanced according to radial_multiplier =   2, to contain    49 grid points.
 
  Finished reading input file 'control.in'.
 
------------------------------------------------------------


------------------------------------------------------------
          Reading geometry description geometry.in.
------------------------------------------------------------
  | The smallest distance between any two atoms is         1.36473238 AA.
  | The first atom of this pair is atom number                     52 .
  | The second atom of this pair is atom number                   138 .
  Input structure read successfully.
  The structure contains      150 atoms,  and a total of       2732.000 electrons.

  Input geometry:
  | No unit cell requested.
  | Atomic structure:
  |       Atom                x [A]            y [A]            z [A]
  |    1: Species S            -5.34330910      -11.98144205       -5.97227826
  |    2: Species S            -5.56293902      -12.16632439       -8.84999963
  |    3: Species S            -7.46897652       -9.57689435       -6.55214975
  |    4: Species S            -6.89797178       -9.24680756       -9.22793563
  |    5: Species S            -8.49260785       -6.53388053       -5.97330724
  |    6: Species S            -8.75861443       -6.62837844       -8.85233874
  |    7: Species Mo           -3.65592875      -12.83157739       -7.57743333
  |    8: Species S            -2.15296146      -12.06536414       -5.97778932
  |    9: Species S            -2.18403565      -12.08194050       -9.18988499
  |   10: Species Mo           -5.27554820      -10.03090692       -7.59222361
  |   11: Species S            -3.75700020       -9.21041509       -6.02655023
  |   12: Species S            -3.73893606       -9.30960483       -9.18709119
  |   13: Species Mo           -6.77151512       -7.44895079       -7.59181352
  |   14: Species S            -5.30586268       -6.54330976       -6.02745113
  |   15: Species S            -5.37871505       -6.47136567       -9.18240392
  |   16: Species Mo           -8.37425199       -4.64793389       -7.57697190
  |   17: Species S            -6.96247111       -3.72496807       -5.97328287
  |   18: Species S            -6.99167688       -3.74762182       -9.19275725
  |   19: Species Mo           -0.61158264      -12.83635989       -7.58573505
  |   20: Species S             0.99911193      -12.10322592       -6.02684860
  |   21: Species S             0.98519621      -12.12849195       -9.16316171
  |   22: Species Mo           -2.19204588      -10.20791933       -7.59543073
  |   23: Species S            -0.58801792       -9.25277925       -6.09519084
  |   24: Species S            -0.59265855       -9.30720580       -9.14539795
  |   25: Species Mo           -3.78428753       -7.44001674       -7.64683211
  |   26: Species S            -2.15773526       -6.46894852       -6.13831727
  |   27: Species S            -2.20309584       -6.49887711       -9.19602780
  |   28: Species Mo           -5.37433128       -4.68692725       -7.59183677
  |   29: Species S            -3.70625851       -3.75958770       -6.10488817
  |   30: Species S            -3.79521556       -3.77532349       -9.16659946
  |   31: Species Mo           -6.85647948       -2.01153720       -7.58644017
  |   32: Species S            -5.39870548       -1.00229528       -6.03629233
  |   33: Species S            -5.45244004       -0.97142808       -9.16926626
  |   34: Species Mo            2.59774631      -12.83668651       -7.59140660
  |   35: Species S             4.16471672      -12.06941114       -5.99321746
  |   36: Species S             4.14477516      -12.08695313       -9.20558223
  |   37: Species Mo            0.99128609      -10.22067348       -7.60888329
  |   38: Species S             2.56324759       -9.28766875       -6.07978514
  |   39: Species S             2.57626314       -9.29060872       -9.13964963
  |   40: Species Mo           -0.60319634       -7.42064639       -7.65884586
  |   41: Species S             0.94104180       -6.46555840       -6.12194443
  |   42: Species S             1.01071187       -6.51015620       -9.18238495
  |   43: Species Mo           -2.16431781       -4.66010821       -7.67944477
  |   44: Species S            -0.60978829       -3.76707229       -9.21229694
  |   45: Species Mo           -3.77711571       -1.93859100       -7.63283177
  |   46: Species S            -2.16475388       -1.08937427       -6.10489028
  |   47: Species S            -2.19530567       -1.00440500       -9.16652759
  |   48: Species Mo           -5.25347366        0.76467194       -7.58646979
  |   49: Species S            -3.82258227        1.71340501       -5.97336683
  |   50: Species S            -3.81763080        1.74950259       -9.19299050
  |   51: Species Mo            5.64440329      -12.83339078       -7.59543920
  |   52: Species S             7.53877988      -12.16158719       -6.30768385
  |   53: Species S             7.35027117      -11.99807563       -9.18907928
  |   54: Species Mo            4.17355463      -10.21388452       -7.60654349
  |   55: Species S             5.70948186       -9.30639105       -6.01032166
  |   56: Species S             5.76296212       -9.23477512       -9.16482773
  |   57: Species Mo            2.57440732       -7.44145513       -7.60992579
  |   58: Species S             4.14912742       -6.51473908       -6.06106402
  |   59: Species S             4.18379837       -6.53490644       -9.11710115
  |   60: Species Mo            0.94690266       -4.66593705       -7.67956308
  |   61: Species S             2.50253694       -3.76118831       -6.12192060
  |   62: Species S             2.57590762       -3.79902341       -9.18236059
  |   63: Species Mo           -0.61377454       -1.97446006       -7.67926747
  |   64: Species S             0.95601009       -1.07602755       -6.13797164
  |   65: Species S             0.95929049       -1.02107783       -9.19549948
  |   66: Species Mo           -2.19524825        0.81902971       -7.59182846
  |   67: Species S            -0.55435773        1.68734122       -6.02631920
  |   68: Species S            -0.65132217        1.71540590       -9.18218606
  |   69: Species Mo           -3.72944412        3.39720080       -7.57708590
  |   70: Species S            -2.15670079        4.44567843       -5.97441306
  |   71: Species S            -2.20620154        4.71883296       -8.85344076
  |   72: Species Mo            7.26738118      -10.03973193       -7.58182215
  |   73: Species S             8.87049843       -9.24025382       -5.93477369
  |   74: Species S             9.46969152       -9.58619220       -8.60452905
  |   75: Species Mo            5.76883825       -7.44998899       -7.56303397
  |   76: Species S             7.34703676       -6.46990094       -6.01062975
  |   77: Species S             7.31067824       -6.55234581       -9.16506127
  |   78: Species Mo            4.16432206       -4.68768590       -7.61000081
  |   79: Species S             5.75767048       -3.75490283       -6.07993851
  |   80: Species S             5.76646141       -3.76458995       -9.13990771
  |   81: Species Mo            2.55755666       -1.94619579       -7.65869641
  |   82: Species S             4.15200015       -1.04350308       -6.09514882
  |   83: Species S             4.19649163       -1.01197658       -9.14534257
  |   84: Species Mo            0.98374562        0.81867841       -7.64593628
  |   85: Species S             2.53115879        1.67889674       -6.02529731
  |   86: Species S             2.62486128        1.71435986       -9.18670768
  |   87: Species Mo           -0.50312977        3.40930936       -7.59040243
  |   88: Species S             0.99235616        5.06952073       -6.54013354
  |   89: Species S             0.99195275        4.42375457       -9.22171376
  |   90: Species Mo            8.76065161       -7.45242125       -7.58233794
  |   91: Species S            10.73696703       -6.62799313       -6.31132779
  |   92: Species S            10.49292469       -6.54237234       -9.19289107
  |   93: Species Mo            7.36471250       -4.68614166       -7.60691197
  |   94: Species S             8.96763162       -3.75117717       -5.99355311
  |   95: Species S             8.97223542       -3.72417481       -9.20588670
  |   96: Species Mo            5.77977146       -1.92705323       -7.60898200
  |   97: Species S             7.41408912       -0.99272725       -6.02687325
  |   98: Species S             7.42886577       -0.96767567       -9.16317692
  |   99: Species Mo            4.17683494        0.82333353       -7.59523744
  |  100: Species S             5.80537757        1.71785256       -5.97764157
  |  101: Species S             5.80396048        1.75327683       -9.18985281
  |  102: Species Mo            2.48312692        3.40438213       -7.59049520
  |  103: Species S             4.13879036        4.43746126       -5.97078716
  |  104: Species S             4.18795779        4.72214644       -8.84862437
  |  105: Species Mo           10.36886583       -4.65014981       -7.59574885
  |  106: Species Mo            8.84867776       -2.01013007       -7.59150534
  |  107: Species Mo            7.24377013        0.76898397       -7.58565476
  |  108: Species Mo            5.71764685        3.40267332       -7.57729970
  |  109: Species H            -3.40791588      -14.24894725       -6.63908704
  |  110: Species H            -3.43277007      -14.24724184       -8.54770994
  |  111: Species H            -9.48264332       -3.72909484       -6.64054147
  |  112: Species H            -9.49329537       -3.75599067       -8.55106782
  |  113: Species H            -0.49327603      -14.30461460       -6.65649751
  |  114: Species H            -0.55306599      -14.31368035       -8.50844154
  |  115: Species H            -8.07115052       -1.18455706       -6.64919982
  |  116: Species H            -8.11158124       -1.21680118       -8.50047473
  |  117: Species H             2.54176498      -14.29971771       -6.64547964
  |  118: Species H             2.49243398      -14.31876484       -8.49787589
  |  119: Species H            -6.57654420        1.40383444       -6.64902742
  |  120: Species H            -6.56968830        1.45399501       -8.50020537
  |  121: Species H             5.41448106      -14.23937903       -6.61994229
  |  122: Species H             5.41053059      -14.25874846       -8.52682988
  |  123: Species H            -5.07872327        3.89869673       -6.64028476
  |  124: Species H            -5.06154659        3.91957295       -8.55081173
  |  125: Species H            11.47360469       -3.75018872       -6.61948402
  |  126: Species H            11.48545551       -3.73352216       -8.52647779
  |  127: Species H            10.08809593       -1.23092158       -6.64535554
  |  128: Species H            10.07915782       -1.17711282       -8.49773450
  |  129: Species H             8.57459760        1.40046068       -6.65637345
  |  130: Species H             8.55244052        1.45754145       -8.50816408
  |  131: Species H             7.06884481        3.89674485       -6.63885644
  |  132: Species H             7.05495157        3.91850286       -8.54756997
  |  133: Species H            -2.11981857        5.76265347       -6.40957657
  |  134: Species H             0.99504095        6.21816994       -7.31950458
  |  135: Species H             4.11008987        5.75758295       -6.39806983
  |  136: Species H            10.47714555       -6.44401946       -4.98424041
  |  137: Species H             8.09970411       -8.79547677       -4.89842033
  |  138: Species H             7.24569801      -12.02521126       -4.98178827
  |  139: Species H            -6.50035073      -12.61711392       -6.40052307
  |  140: Species H            -8.45760544      -10.15044490       -7.34024698
  |  141: Species H            -9.61596113       -7.22321169       -6.40632969
  |  142: Species H            -8.50954166       -6.44936241      -10.18252455
  |  143: Species H            -6.13851365       -8.81188424      -10.27700500
  |  144: Species H            -5.28009387      -12.04680668      -10.18011102
  |  145: Species H             8.50368835      -12.62919694       -8.74504244
  |  146: Species H            10.45142148      -10.15270959       -7.80312265
  |  147: Species H            11.61769752       -7.22558057       -8.75352387
  |  148: Species H             4.22564466        4.42024548      -10.17943447
  |  149: Species H             0.99491903        3.55413137      -10.27575603
  |  150: Species H            -2.23559495        4.41286860      -10.18351569

 
  Finished reading input file 'control.in'.
 

------------------------------------------------------------
          Reading geometry description geometry.in.
------------------------------------------------------------
 
  Consistency checks for stacksize environment parameter are next.
 
  | Maximum stacksize for task 0: unlimited
  | Maximum stacksize for task 1: unlimited
  | Maximum stacksize for task 2: unlimited
  | Maximum stacksize for task 3: unlimited
  | Maximum stacksize for task 4: unlimited
  | Maximum stacksize for task 5: unlimited
  | Maximum stacksize for task 6: unlimited
  | Maximum stacksize for task 7: unlimited
  | Maximum stacksize for task 8: unlimited
  | Maximum stacksize for task 9: unlimited
  | Maximum stacksize for task 10: unlimited
  | Maximum stacksize for task 11: unlimited
  | Maximum stacksize for task 12: unlimited
  | Maximum stacksize for task 13: unlimited
  | Maximum stacksize for task 14: unlimited
  | Maximum stacksize for task 15: unlimited
  | Current stacksize for task 0: unlimited
  | Current stacksize for task 1: unlimited
  | Current stacksize for task 2: unlimited
  | Current stacksize for task 3: unlimited
  | Current stacksize for task 4: unlimited
  | Current stacksize for task 5: unlimited
  | Current stacksize for task 6: unlimited
  | Current stacksize for task 7: unlimited
  | Current stacksize for task 8: unlimited
  | Current stacksize for task 9: unlimited
  | Current stacksize for task 10: unlimited
  | Current stacksize for task 11: unlimited
  | Current stacksize for task 12: unlimited
  | Current stacksize for task 13: unlimited
  | Current stacksize for task 14: unlimited
  | Current stacksize for task 15: unlimited
 
  Consistency checks for the contents of control.in are next.
 
  MPI_IN_PLACE appears to work with this MPI implementation.
  | Keeping use_mpi_in_place .true. (see manual).
  Target number of points in a grid batch is not set. Defaulting to  100
  Method for grid partitioning is not set. Defaulting to parallel hash+maxmin partitioning.
  Batch size limit is not set. Defaulting to    200
  By default, will store active basis functions for each batch.
  If in need of memory, prune_basis_once .false. can be used to disable this option.
  communication_type for Hartree potential was not specified.
  Defaulting to calc_hartree .
  Defaulting to Pulay charge density mixer.
  Pulay mixer: Number of relevant iterations not set.
  Defaulting to    8 iterations.
  Pulay mixer: Number of initial linear mixing iterations not set.
  Defaulting to    0 iterations.
  Work space size for distributed Hartree potential not set.
  Defaulting to   0.200000E+03 MB.
  Mixing parameter for charge density mixing has not been set.
  Using default: charge_mix_param =     0.0500.
  The mixing parameter will be adjusted in iteration number     2 of the first full s.c.f. cycle only.
  Algorithm-dependent basis array size parameters:
  | n_max_pulay                         :        8
  Maximum number of self-consistency iterations not provided.
  Presetting  1000 iterations.
  Presetting      1001 iterations before the initial mixing cycle
  is restarted anyway using the sc_init_iter criterion / keyword.
  Presetting a factor      1.000 between actual scf density residual
  and density convergence criterion sc_accuracy_rho below which sc_init_iter
  takes no effect.
 * No s.c.f. convergence criteria (sc_accuracy_*) were provided in control.in.
 * The run will proceed with a reasonable default guess, but please check whether.
 * the s.c.f. cycles seem to take too much or too little time.
  Calculation of forces was not defined in control.in. No forces will be calculated.
  Geometry relaxation not requested: no relaxation will be performed.
 * Notice: The s.c.f. convergence criterion sc_accuracy_rho was not provided.
 * We used to stop in this case, and ask the user to provide reasonable
 * scf convergence criteria. However, this led some users to employ criteria
 * that led to extremely long run times, e.g., for simple relaxation.
 * We now preset a default value for sc_accuracy_rho if it is not set.
 * You may still wish to check if this setting is too tight or too loose for your needs.
 * Based on n_atoms and forces and force-correction status, FHI-aims chose sc_accuracy_rho =  0.400000E-04 .
  No accuracy limit for integral partition fn. given. Defaulting to  0.1000E-14.
  No threshold value for u(r) in integrations given. Defaulting to  0.1000E-05.
  No accuracy for occupation numbers given. Defaulting to  0.1000E-12.
  No threshold value for occupation numbers given. Defaulting to  0.0000E+00.
  No accuracy for fermi level given. Defaulting to  0.1000E-19.
  Maximum # of iterations to find E_F not set. Defaulting to  200.
  Preferred method for the eigenvalue solver ('KS_method') not specified in 'control.in'.
  Calling BLACS routine to test compilation state
  Since ScaLAPACK support is enabled, defaulting to ELPA (via ELSI).
  Will not use alltoall communication since running on < 1024 CPUs.
  Threshold for basis singularities not set.
  Default threshold for basis singularities:  0.1000E-04
  partition_type (choice of integration weights) for integrals was not specified.
  | Using a version of the partition function of Stratmann and coworkers ('stratmann_sparse').
  | At each grid point, the set of atoms used to build the partition table is smoothly restricted to
  | only those atoms whose free-atom density would be non-zero at that grid point.
  Partitioning for Hartree potential was not defined. Using partition_type for integrals.
  | Adjusted default value of keyword multip_moments_threshold to:       0.10000000E-11
  | This value may affect high angular momentum components of the Hartree potential in periodic systems.
  No q(lm)/r^(l+1) cutoff set for long-range Hartree potential.
  | Using default value of  0.100000E-09 .
  | Verify using the multipole_threshold keyword.
  Defaulting to new monopole extrapolation.
  Density update method: automatic selection selected.
  WARNING: Switching off the compensation of charge integration errors
  on the 3D integration grid, since you have requested a DFPT calculation.
  This is unfortunately necessary since "compensate_multipole_errors" is
  not yet implemented for DFPT.
  Use the "compensate_multipole_errors" flag to overwrite this behaviour.
  Set 'collect_eigenvectors' to be '.true.' for use_density_matrix .false.
 
  Consistency checks for the contents of geometry.in are next.
 
  Number of empty states per atom not set in control.in .
  | Since you are using a method that relies on the unoccupied spectrum
  | (MP2,GW,RPA et al.), will use the full Hamiltonian size (see below)
  | as the max. possible number of states (occupied plus empty).

  Structure-dependent array size parameters: 
  | Maximum number of distinct radial functions  :       33
  | Maximum number of basis functions            :     5212
  | Number of Kohn-Sham states (occupied + empty):     5212
------------------------------------------------------------

------------------------------------------------------------
          Preparing all fixed parts of the calculation.
------------------------------------------------------------
  Determining machine precision:
    2.225073858507201E-308
  Setting up grids for atomic and cluster calculations.

  Creating wave function, potential, and density for free atoms.
  Runtime choices for atomic solver:
  | atomic solver xc        : PW-LDA
  | compute density gradient: 0
  | compute kinetic density : F

  Species: S

  List of occupied orbitals and eigenvalues:
    n    l              occ      energy [Ha]    energy [eV]
    1    0           2.0000       -88.357757     -2404.3369
    2    0           2.0000        -7.748481      -210.8469
    3    0           2.0000        -0.634998       -17.2792
    2    1           6.0000        -5.752748      -156.5402
    3    1           4.0000        -0.261122        -7.1055


  Species: Mo

  List of occupied orbitals and eigenvalues:
    n    l              occ      energy [Ha]    energy [eV]
    1    0           2.0000      -744.284823    -20253.0205
    2    0           2.0000      -103.173948     -2807.5060
    3    0           2.0000       -17.480044      -475.6562
    4    0           2.0000        -2.365991       -64.3819
    5    0           1.0000        -0.157972        -4.2986
    2    1           6.0000       -92.280153     -2511.0707
    3    1           6.0000       -13.927658      -378.9909
    4    1           6.0000        -1.416563       -38.5466
    3    2          10.0000        -8.135711      -221.3840
    4    2           5.0000        -0.143782        -3.9125


  Species: H

  List of occupied orbitals and eigenvalues:
    n    l              occ      energy [Ha]    energy [eV]
    1    0           1.0000        -0.233224        -6.3463


  Adding cutoff potential to free-atom effective potential.
  Creating fixed part of basis set: Ionic, confined, hydrogenic.
 
  S                    ion:

  List of free ionic orbitals and eigenvalues:
    n    l      energy [Ha]    energy [eV]
    1    0       -89.377212     -2432.0777
    2    0        -8.738531      -237.7875
    3    0        -1.470337       -40.0099
    2    1        -6.744772      -183.5346
    3    1        -1.051741       -28.6193


  List of ionic basis orbitals and eigenvalues:
    n    l      energy [Ha]    energy [eV]    outer radius [A]
    3    2        -0.499400       -13.5894       5.796302
    3    0        -1.470331       -40.0097       3.967934

 
  S                    hydrogenic:
 
  List of hydrogenic basis orbitals: 
    n    l      effective z      eigenvalue [eV]  inner max. [A]     outer max. [A]     outer radius [A]   
    2    1         1.800000       -11.0199           1.182904           1.182904           6.391826
    4    3         7.000000       -41.6672           1.212182           1.212182           5.129305
    4    2         6.200000       -32.6874           0.582121           1.814567           5.939768
    5    4        10.800000       -63.4785           1.227092           1.227092           4.766538
 
 
  Mo                   ion:

  List of free ionic orbitals and eigenvalues:
    n    l      energy [Ha]    energy [eV]
    1    0      -744.986513    -20272.1144
    2    0      -103.864343     -2826.2926
    3    0       -18.167662      -494.3672
    4    0        -3.044920       -82.8565
    2    1       -92.970248     -2529.8492
    3    1       -14.615180      -397.6993
    4    1        -2.090292       -56.8797
    3    2        -8.823253      -240.0929
    4    2        -0.773904       -21.0590


  List of ionic basis orbitals and eigenvalues:
    n    l      energy [Ha]    energy [eV]    outer radius [A]
    5    1        -0.470923       -12.8145       6.396256
    5    0        -0.661228       -17.9929       5.729842

 
  Mo                   hydrogenic:
 
  List of hydrogenic basis orbitals: 
    n    l      effective z      eigenvalue [eV]  inner max. [A]     outer max. [A]     outer radius [A]   
    4    3         8.400000       -60.0010           1.009788           1.009788           4.487018
    3    2         2.800000       -11.8472           1.708156           1.708156           6.396256
    5    4        12.000000       -78.3687           1.100005           1.100005           4.432498
 
 
  H                    hydrogenic:
 
  List of hydrogenic basis orbitals: 
    n    l      effective z      eigenvalue [eV]  inner max. [A]     outer max. [A]     outer radius [A]   
    2    0         2.100000       -14.9965           0.193243           1.317208           5.373006
    2    1         3.500000       -41.6672           0.602369           0.602369           4.056063
    1    0         0.850000        -9.8292           0.624871           0.624871           5.373006
    2    1         3.700000       -46.5653           0.573622           0.573622           3.910002
    2    0         1.200000        -4.5995           0.334980           2.228188           5.505995
    3    2         7.000000       -74.0753           0.680699           0.680699           3.769201
 
  Creating atomic-like basis functions for current effective potential.

  Species S                   :

  List of atomic basis orbitals and eigenvalues:
    n    l      energy [Ha]    energy [eV]    outer radius [A]
    1    0       -88.357757     -2404.3369       0.682391
    2    0        -7.748481      -210.8469       2.317169
    3    0        -0.634998       -17.2792       6.086785
    2    1        -5.752748      -156.5402       2.586670
    3    1        -0.261122        -7.1055       6.314162


  Species Mo                  :

  List of atomic basis orbitals and eigenvalues:
    n    l      energy [Ha]    energy [eV]    outer radius [A]
    1    0      -744.284823    -20253.0205       0.247552
    2    0      -103.173948     -2807.5060       0.682864
    3    0       -17.480044      -475.6562       1.646644
    4    0        -2.365991       -64.3819       4.220963
    5    0        -0.157972        -4.2986       6.396256
    2    1       -92.280153     -2511.0707       0.699766
    3    1       -13.927658      -378.9909       1.793761
    4    1        -1.416563       -38.5466       5.195995
    3    2        -8.135711      -221.3840       2.181285
    4    2        -0.143782        -3.9125       6.318538


  Species H                   :

  List of atomic basis orbitals and eigenvalues:
    n    l      energy [Ha]    energy [eV]    outer radius [A]
    1    0        -0.233224        -6.3463       5.373006

  Assembling full basis from fixed parts.
  | Species S :   atomic orbital   1 s accepted.
  | Species S :   atomic orbital   2 s accepted.
  | Species S :    ionic orbital   3 s accepted.
  | Species S :   atomic orbital   3 s accepted.
  | Species S :   atomic orbital   2 p accepted.
  | Species S :   atomic orbital   3 p accepted.
  | Species S :    hydro orbital   2 p accepted.
  | Species S :    ionic orbital   3 d accepted.
  | Species S :    hydro orbital   4 d accepted.
  | Species S :    hydro orbital   4 f accepted.
  | Species S :    hydro orbital   5 g accepted.
  | Species Mo :   atomic orbital   1 s accepted.
  | Species Mo :   atomic orbital   2 s accepted.
  | Species Mo :   atomic orbital   3 s accepted.
  | Species Mo :   atomic orbital   4 s accepted.
  | Species Mo :    ionic orbital   5 s accepted.
  | Species Mo :   atomic orbital   5 s accepted.
  | Species Mo :   atomic orbital   2 p accepted.
  | Species Mo :   atomic orbital   3 p accepted.
  | Species Mo :   atomic orbital   4 p accepted.
  | Species Mo :    ionic orbital   5 p accepted.
  | Species Mo :   atomic orbital   3 d accepted.
  | Species Mo :   atomic orbital   4 d accepted.
  | Species Mo :    hydro orbital   3 d accepted.
  | Species Mo :    hydro orbital   4 f accepted.
  | Species Mo :    hydro orbital   5 g accepted.
  | Species H :   atomic orbital   1 s accepted.
  | Species H :    hydro orbital   2 s accepted.
  | Species H :    hydro orbital   1 s accepted.
  | Species H :    hydro orbital   2 s accepted.
  | Species H :    hydro orbital   2 p accepted.
  | Species H :    hydro orbital   2 p accepted.
  | Species H :    hydro orbital   3 d accepted.
 
  Basis size parameters after reduction:
  | Total number of radial functions:       33
  | Total number of basis functions :     5212
 
  Per-task memory consumption for arrays in subroutine allocate_ext:
  |          12.258764MB.
  Testing on-site integration grid accuracy.
  |  Species  Function  <phi|h_atom|phi> (log., in eV)  <phi|h_atom|phi> (rad., in eV)
           1        1              -2404.3368913678              -2404.3368446658
           1        2               -210.8468860906               -210.8468854578
           1        3                -17.0127834490                -17.0127833559
           1        4                  6.9208365659                  6.9208447456
           1        5               -156.5402375830               -156.5402374480
           1        6                 -7.1055043646                 -7.1055090720
           1        7                  6.5639545403                  6.5637213036
           1        8                  5.9411260603                  5.9411097916
           1        9                 19.1038416630                 19.1038584096
           1       10                 24.5856802797                 24.5856785969
           1       11                 47.4218547171                 47.4218555581
           2       12             -20253.0205066639             -20253.0189838258
           2       13              -2807.5059682553              -2807.5059423397
           2       14               -475.6561857212               -475.6561830241
           2       15                -64.3818815892                -64.3818808850
           2       16                 -3.6420671366                 -3.6420649411
           2       17                  3.5089939515                  3.5050924598
           2       18              -2511.0707375354              -2511.0707355215
           2       19               -378.9908592220               -378.9908578359
           2       20                -38.5466357706                -38.5466352863
           2       21                  0.0413252873                  0.0412613130
           2       22               -221.3839670368               -221.3839666429
           2       23                 -3.9126042967                 -3.9126288276
           2       24                  6.5094483737                  6.5089545949
           2       25                 23.0578719249                 23.0578720035
           2       26                 49.8804731706                 49.8804731458
           3       27                 -6.3466384203                 -6.3467402336
           3       28                 13.9242983524                 13.9240039182
           3       29                 42.6164017638                 42.6068629502
           3       30                 44.6397076601                 44.5858497433 ***
           3       31                 28.9847971103                 28.9847971340
           3       32                 59.7390576985                 59.7391280920
           3       33                 60.2962768518                 60.2962765952
 * Note: Onsite integrals marked "***" above are less accurate than
 * onsite_accuracy_threshold =    0.03000 eV. Usually, this is harmless.
 * When in doubt, tighten the "radial" and/or "radial_multiplier" flags to check.

  Preparing densities etc. for the partition functions (integrals / Hartree potential).

  Preparations completed.
  max(cpu_time)          :      0.389 s.
  Wall clock time (cpu1) :      0.422 s.
------------------------------------------------------------

  Initializing index lists of integration centers etc. from given atomic structure:
  | Number of centers in hartree potential         :       150
  | Number of centers in hartree multipole         :       150
  | Number of centers in electron density summation:       150
  | Number of centers in basis integrals           :       150
  | Number of centers in integrals                 :       150
  | Number of centers in hamiltonian               :       150

------------------------------------------------------------
          Begin self-consistency loop: Initialization.

          Date     :  20221009, Time     :  230353.827
------------------------------------------------------------
  * Using 16 tasks for Scalapack Eigenvalue solver.
  Detailed listing of tasks and assigned k-points:
  (for non-periodic systems, the "k-point" denotes an internal label only)
   Task     0 k-point     1 on adag020
   Task     1 k-point     1 on adag020
   Task     2 k-point     1 on adag020
   Task     3 k-point     1 on adag020
   Task     4 k-point     1 on adag021
   Task     5 k-point     1 on adag021
   Task     6 k-point     1 on adag021
   Task     7 k-point     1 on adag021
   Task     8 k-point     1 on adag035
   Task     9 k-point     1 on adag035
   Task    10 k-point     1 on adag035
   Task    11 k-point     1 on adag035
   Task    12 k-point     1 on adag036
   Task    13 k-point     1 on adag036
   Task    14 k-point     1 on adag036
   Task    15 k-point     1 on adag036
  Tasks:    16 split into      4 X      4 BLACS grid
  Calculating block size based on n_basis =         5212  max_nprow =            4  max_npcol =            4
  ScaLAPACK block size set to:           16
  Allocating       13.133 MB for ovlp
  Allocating       13.133 MB for ham
  Allocating       13.133 MB for eigenvec
  Required Scalapack workspace - INTEGER:            1  REAL:             1
  Partitioning the integration grid into batches with parallel hashing+maxmin method.
  | Number of batches:    30882
  | Maximal batch size:     200
  | Minimal batch size:      49
  | Average batch size:     105.930
  | Standard deviation of batch sizes:      29.790

  Integration load balanced across    16 MPI tasks.
  Work distribution over tasks is as follows:
  Task     0 has     204394 integration points.
  Task     1 has     204384 integration points.
  Task     2 has     204394 integration points.
  Task     3 has     204498 integration points.
  Task     4 has     204412 integration points.
  Task     5 has     204417 integration points.
  Task     6 has     204497 integration points.
  Task     7 has     204500 integration points.
  Task     8 has     204503 integration points.
  Task     9 has     204415 integration points.
  Task    10 has     204410 integration points.
  Task    11 has     204482 integration points.
  Task    12 has     204439 integration points.
  Task    13 has     204530 integration points.
  Task    14 has     204523 integration points.
  Task    15 has     204522 integration points.
  Initializing partition tables, free-atom densities, potentials, etc. across the integration grid (initialize_grid_storage).
  | initialize_grid_storage: Actual outermost partition radius vs. multipole_radius_free
  | (-- VB: in principle, multipole_radius_free should be larger, hence this output)
  | Species        1: Confinement radius =              7.000000000000000 AA, multipole_radius_free =              7.048535234309517 AA.
  | Species        1: outer_partition_radius set to              7.048535234309517 AA .
  | Species        2: Confinement radius =              7.000000000000000 AA, multipole_radius_free =              7.053420401129707 AA.
  | Species        2: outer_partition_radius set to              7.053420401129707 AA .
  | Species        3: Confinement radius =              6.000000000000000 AA, multipole_radius_free =              6.071692442739658 AA.
  | Species        3: outer_partition_radius set to              6.071692442739658 AA .
  | The sparse table of interatomic distances needs        248.79 kbyte instead of       180.00 kbyte of memory.
  | Using the partition_type stratmann_smoother will reduce your memory usage.
  | Net number of integration points:  3271320
  | of which are non-zero points    :  2661280
  Renormalizing the initial density to the exact electron count on the 3D integration grid.
  | Initial density: Formal number of electrons (from input files) :    2732.0000000000
  | Integrated number of electrons on 3D grid     :    2731.9997614931
  | Charge integration error                      :      -0.0002385069
  | Normalization factor for density and gradient :       1.0000000873
  Obtaining max. number of non-zero basis functions in each batch (get_n_compute_maxes).
  | Maximal number of non-zero basis functions:     1319 in task     0
  | Maximal number of non-zero basis functions:     1304 in task     1
  | Maximal number of non-zero basis functions:     1325 in task     2
  | Maximal number of non-zero basis functions:     1290 in task     3
  | Maximal number of non-zero basis functions:     1310 in task     4
  | Maximal number of non-zero basis functions:     1299 in task     5
  | Maximal number of non-zero basis functions:     1304 in task     6
  | Maximal number of non-zero basis functions:     1298 in task     7
  | Maximal number of non-zero basis functions:     1340 in task     8
  | Maximal number of non-zero basis functions:     1321 in task     9
  | Maximal number of non-zero basis functions:     1309 in task    10
  | Maximal number of non-zero basis functions:     1307 in task    11
  | Maximal number of non-zero basis functions:     1294 in task    12
  | Maximal number of non-zero basis functions:     1313 in task    13
  | Maximal number of non-zero basis functions:     1332 in task    14
  | Maximal number of non-zero basis functions:     1288 in task    15
  Selecting the method for density update.
  Density matrix based charge density update selected.
  Scalapack and density-matrix based density update requested:
  Switching to packed matrix format "index" by default.
  Hamiltonian matrix size:
  | Size of matrix non-packed:              13585078
  | Size of matrix packed:         6810898
  Allocating      207.252 MB for KS_eigenvector
  Integrating Hamiltonian matrix: batch-based integration.
  Time summed over all CPUs for integration: real work      139.017 s, elapsed      152.938 s
  Integrating overlap matrix.
  Time summed over all CPUs for integration: real work       99.416 s, elapsed      108.616 s
  Decreasing sparse matrix size:
  | Tolerance:  0.1000E-12
  Hamiltonian matrix
  | Array has  6359046 nonzero elements out of  6810898 elements
  | Sparsity factor is 0.066
  Overlap matrix
  | Array has  6150502 nonzero elements out of  6810898 elements
  | Sparsity factor is 0.097
  New size of hamiltonian matrix:     6359405
  Deallocating overlap matrix.

  Updating Kohn-Sham eigenvalues and eigenvectors using ELSI and the ELPA eigensolver.
  Overlap matrix is not singular
  | Lowest and highest eigenvalues :  0.1159E-03,  0.9960E+01
  Finished singularity check of overlap matrix
  | Time :     1.048 s
  Starting ELPA eigensolver
  Finished Cholesky decomposition
  | Time :     0.295 s
  Finished transformation to standard eigenproblem
  | Time :     0.264 s
  Finished solving standard eigenproblem
  | Time :     3.241 s
  Finished back-transformation of eigenvectors
  | Time :     0.219 s

  Obtaining occupation numbers and electronic chemical potential using ELSI.
  | Note that, for insulating systems, the printed 'chemical potential' value is not uniquely defined.
  | It can be anywhere in the energy gap, as long as it correctly separates occupied and unoccupied states.
  | In systems with a gap, the physically relevant chemical potential is the VBM or HOMO.

  | Chemical potential (Fermi level):    -6.02755653 eV
  Writing Kohn-Sham eigenvalues.

  State    Occupation    Eigenvalue [Ha]    Eigenvalue [eV]
      1       2.00000        -744.309565       -20253.69377
      2       2.00000        -744.309564       -20253.69374
      3       2.00000        -744.309542       -20253.69314
      4       2.00000        -744.309540       -20253.69309
      5       2.00000        -744.309520       -20253.69253
      6       2.00000        -744.309519       -20253.69251
      7       2.00000        -744.308139       -20253.65496
      8       2.00000        -744.308128       -20253.65467
      9       2.00000        -744.308119       -20253.65441
     10       2.00000        -744.308115       -20253.65430
     11       2.00000        -744.308094       -20253.65374
     12       2.00000        -744.308086       -20253.65352
     13       2.00000        -744.307789       -20253.64544
     14       2.00000        -744.307663       -20253.64201
     15       2.00000        -744.307663       -20253.64199
     16       2.00000        -744.306997       -20253.62388
     17       2.00000        -744.306996       -20253.62385
     18       2.00000        -744.306994       -20253.62380
     19       2.00000        -744.306993       -20253.62378
     20       2.00000        -744.306938       -20253.62227
     21       2.00000        -744.306911       -20253.62154
     22       2.00000        -744.306910       -20253.62151
     23       2.00000        -744.306639       -20253.61415
     24       2.00000        -744.306639       -20253.61413
     25       2.00000        -744.306451       -20253.60902
     26       2.00000        -744.306450       -20253.60899
     27       2.00000        -744.306018       -20253.59725
     28       2.00000        -744.306018       -20253.59724
     29       2.00000        -744.305645       -20253.58709
     30       2.00000        -744.305645       -20253.58708
     31       2.00000        -744.305584       -20253.58543
     32       2.00000        -744.304923       -20253.56743
     33       2.00000        -744.304921       -20253.56739
     34       2.00000        -744.304856       -20253.56563
     35       2.00000        -744.304855       -20253.56560
     36       2.00000        -744.304827       -20253.56483
     37       2.00000        -744.304824       -20253.56475
     38       2.00000        -103.198964        -2808.18668
     39       2.00000        -103.198962        -2808.18665
     40       2.00000        -103.198940        -2808.18605
     41       2.00000        -103.198938        -2808.18599
     42       2.00000        -103.198918        -2808.18543
     43       2.00000        -103.198917        -2808.18540
     44       2.00000        -103.197526        -2808.14756
     45       2.00000        -103.197515        -2808.14726
     46       2.00000        -103.197505        -2808.14700
     47       2.00000        -103.197502        -2808.14690
     48       2.00000        -103.197481        -2808.14633
     49       2.00000        -103.197473        -2808.14610
     50       2.00000        -103.197165        -2808.13774
     51       2.00000        -103.197037        -2808.13425
     52       2.00000        -103.197037        -2808.13424
     53       2.00000        -103.196363        -2808.11591
     54       2.00000        -103.196361        -2808.11587
     55       2.00000        -103.196360        -2808.11582
     56       2.00000        -103.196359        -2808.11580
     57       2.00000        -103.196307        -2808.11438
     58       2.00000        -103.196275        -2808.11352
     59       2.00000        -103.196274        -2808.11349
     60       2.00000        -103.196006        -2808.10619
     61       2.00000        -103.196005        -2808.10618
     62       2.00000        -103.195820        -2808.10115
     63       2.00000        -103.195819        -2808.10112
     64       2.00000        -103.195383        -2808.08926
     65       2.00000        -103.195383        -2808.08924
     66       2.00000        -103.195000        -2808.07882
     67       2.00000        -103.194999        -2808.07881
     68       2.00000        -103.194938        -2808.07714
     69       2.00000        -103.194273        -2808.05903
     70       2.00000        -103.194271        -2808.05899
     71       2.00000        -103.194205        -2808.05720
     72       2.00000        -103.194205        -2808.05718
     73       2.00000        -103.194176        -2808.05641
     74       2.00000        -103.194173        -2808.05633
     75       2.00000         -92.305122        -2511.75017
     76       2.00000         -92.305121        -2511.75014
     77       2.00000         -92.305105        -2511.74971
     78       2.00000         -92.305104        -2511.74968
     79       2.00000         -92.305099        -2511.74954
     80       2.00000         -92.305097        -2511.74948
     81       2.00000         -92.305097        -2511.74948
     82       2.00000         -92.305096        -2511.74945
     83       2.00000         -92.305082        -2511.74908
     84       2.00000         -92.305080        -2511.74902
     85       2.00000         -92.305076        -2511.74892
     86       2.00000         -92.305075        -2511.74889
     87       2.00000         -92.305074        -2511.74885
     88       2.00000         -92.305072        -2511.74879
     89       2.00000         -92.305059        -2511.74846
     90       2.00000         -92.305059        -2511.74844
     91       2.00000         -92.305051        -2511.74824
     92       2.00000         -92.305050        -2511.74821
     93       2.00000         -92.303690        -2511.71119
     94       2.00000         -92.303679        -2511.71089
     95       2.00000         -92.303669        -2511.71064
     96       2.00000         -92.303668        -2511.71059
     97       2.00000         -92.303666        -2511.71053
     98       2.00000         -92.303662        -2511.71043
     99       2.00000         -92.303657        -2511.71029
    100       2.00000         -92.303651        -2511.71013
    101       2.00000         -92.303647        -2511.71004
    102       2.00000         -92.303645        -2511.70996
    103       2.00000         -92.303643        -2511.70993
    104       2.00000         -92.303641        -2511.70986
    105       2.00000         -92.303637        -2511.70975
    106       2.00000         -92.303636        -2511.70974
    107       2.00000         -92.303623        -2511.70937
    108       2.00000         -92.303616        -2511.70920
    109       2.00000         -92.303614        -2511.70914
    110       2.00000         -92.303608        -2511.70897
    111       2.00000         -92.303328        -2511.70135
    112       2.00000         -92.303317        -2511.70106
    113       2.00000         -92.303298        -2511.70054
    114       2.00000         -92.303200        -2511.69786
    115       2.00000         -92.303199        -2511.69785
    116       2.00000         -92.303191        -2511.69761
    117       2.00000         -92.303190        -2511.69760
    118       2.00000         -92.303170        -2511.69704
    119       2.00000         -92.303169        -2511.69703
    120       2.00000         -92.302525        -2511.67951
    121       2.00000         -92.302524        -2511.67947
    122       2.00000         -92.302522        -2511.67942
    123       2.00000         -92.302521        -2511.67940
    124       2.00000         -92.302521        -2511.67939
    125       2.00000         -92.302520        -2511.67935
    126       2.00000         -92.302518        -2511.67932
    127       2.00000         -92.302517        -2511.67929
    128       2.00000         -92.302497        -2511.67873
    129       2.00000         -92.302496        -2511.67870
    130       2.00000         -92.302494        -2511.67865
    131       2.00000         -92.302493        -2511.67862
    132       2.00000         -92.302468        -2511.67795
    133       2.00000         -92.302464        -2511.67783
    134       2.00000         -92.302441        -2511.67721
    135       2.00000         -92.302438        -2511.67712
    136       2.00000         -92.302436        -2511.67709
    137       2.00000         -92.302435        -2511.67704
    138       2.00000         -92.302433        -2511.67701
    139       2.00000         -92.302409        -2511.67634
    140       2.00000         -92.302408        -2511.67631
    141       2.00000         -92.302168        -2511.66979
    142       2.00000         -92.302168        -2511.66977
    143       2.00000         -92.302162        -2511.66963
    144       2.00000         -92.302162        -2511.66962
    145       2.00000         -92.302141        -2511.66905
    146       2.00000         -92.302141        -2511.66904
    147       2.00000         -92.301978        -2511.66460
    148       2.00000         -92.301977        -2511.66460
    149       2.00000         -92.301977        -2511.66458
    150       2.00000         -92.301976        -2511.66457
    151       2.00000         -92.301959        -2511.66409
    152       2.00000         -92.301958        -2511.66406
    153       2.00000         -92.301543        -2511.65277
    154       2.00000         -92.301542        -2511.65276
    155       2.00000         -92.301540        -2511.65270
    156       2.00000         -92.301539        -2511.65268
    157       2.00000         -92.301523        -2511.65223
    158       2.00000         -92.301523        -2511.65222
    159       2.00000         -92.301170        -2511.64264
    160       2.00000         -92.301170        -2511.64263
    161       2.00000         -92.301167        -2511.64255
    162       2.00000         -92.301167        -2511.64254
    163       2.00000         -92.301124        -2511.64138
    164       2.00000         -92.301124        -2511.64137
    165       2.00000         -92.301109        -2511.64097
    166       2.00000         -92.301105        -2511.64086
    167       2.00000         -92.301063        -2511.63973
    168       2.00000         -92.300446        -2511.62293
    169       2.00000         -92.300444        -2511.62288
    170       2.00000         -92.300427        -2511.62241
    171       2.00000         -92.300425        -2511.62236
    172       2.00000         -92.300410        -2511.62196
    173       2.00000         -92.300409        -2511.62192
    174       2.00000         -92.300379        -2511.62111
    175       2.00000         -92.300378        -2511.62108
    176       2.00000         -92.300360        -2511.62058
    177       2.00000         -92.300359        -2511.62056
    178       2.00000         -92.300350        -2511.62031
    179       2.00000         -92.300347        -2511.62023
    180       2.00000         -92.300343        -2511.62013
    181       2.00000         -92.300342        -2511.62011
    182       2.00000         -92.300331        -2511.61979
    183       2.00000         -92.300328        -2511.61971
    184       2.00000         -92.300314        -2511.61934
    185       2.00000         -92.300311        -2511.61926
    186       2.00000         -88.398334        -2405.44105
    187       2.00000         -88.396959        -2405.40363
    188       2.00000         -88.396946        -2405.40330
    189       2.00000         -88.396835        -2405.40027
    190       2.00000         -88.396830        -2405.40013
[...]
  | Hartree multipole sum: apparent total charge =  -0.233543E-03
  Summing up the Hartree potential.
  Time summed over all CPUs for potential: real work      111.425 s, elapsed      117.700 s
  | RMS delta_rho error from multipole expansion :   0.184540E+00

  Integrating first-order-Hamiltonian matrix: batch-based integration.
  Time summed over all CPUs for integration: real work      920.122 s, elapsed      994.486 s
  End CPSCF iteration #    29                  :  max(cpu_time)    wall_clock(cpu1)
  | Time for this iteration                     :      128.515 s         128.535 s
  | first_order_density                         :       37.518 s          37.522 s
  | first_order_potential                       :       22.294 s          22.297 s
  | first_order_H                               :       62.492 s          62.501 s
  | first_order_DM                              :        2.452 s           2.452 s
  | Solution of Sternheimer eqns.               :        2.307 s           2.308 s
------------------------------------------------------------

-------------------------------------------------------------
          Begin CP-self-consistency iteration #   30

  Date     :  20221010, Time     :  002253.965
------------------------------------------------------------

  CPSCF convergence accuracy:
  | Change of first_order_density_matrix     :  0.2987E-02
  Integrating first_order_rho: batch-based integration.
  Time summed over all CPUs for integration: real work      545.844 s, elapsed      600.147 s

  Evaluating partitioned Hartree potential by multipole expansion.
  | Analytical far-field extrapolation by fixed multipoles:
  | Hartree multipole sum: apparent total charge =  -0.126291E-05
  Summing up the Hartree potential.
  Time summed over all CPUs for potential: real work      112.562 s, elapsed      118.918 s
  | RMS delta_rho error from multipole expansion :   0.360763E+00


  Evaluating partitioned Hartree potential by multipole expansion.
  | Analytical far-field extrapolation by fixed multipoles:
  | Hartree multipole sum: apparent total charge =   0.136748E-05
  Summing up the Hartree potential.
  Time summed over all CPUs for potential: real work      112.372 s, elapsed      118.601 s
  | RMS delta_rho error from multipole expansion :   0.359690E+00


  Evaluating partitioned Hartree potential by multipole expansion.
  | Analytical far-field extrapolation by fixed multipoles:
  | Hartree multipole sum: apparent total charge =  -0.233542E-03
  Summing up the Hartree potential.
  Time summed over all CPUs for potential: real work      105.603 s, elapsed      110.499 s
  | RMS delta_rho error from multipole expansion :   0.184540E+00

  Integrating first-order-Hamiltonian matrix: batch-based integration.
  Time summed over all CPUs for integration: real work      916.324 s, elapsed      987.643 s
  End CPSCF iteration #    30                  :  max(cpu_time)    wall_clock(cpu1)
  | Time for this iteration                     :      127.672 s         127.691 s
  | first_order_density                         :       37.519 s          37.523 s
  | first_order_potential                       :       21.858 s          21.860 s
  | first_order_H                               :       62.063 s          62.072 s
  | first_order_DM                              :        2.450 s           2.450 s
  | Solution of Sternheimer eqns.               :        2.330 s           2.330 s
------------------------------------------------------------

-------------------------------------------------------------
          Begin CP-self-consistency iteration #   31

  Date     :  20221010, Time     :  002501.656
------------------------------------------------------------

  CPSCF convergence accuracy:
  | Change of first_order_density_matrix     :  0.3009E-02
  Integrating first_order_rho: batch-based integration.
  Time summed over all CPUs for integration: real work      545.736 s, elapsed      600.215 s

  Evaluating partitioned Hartree potential by multipole expansion.
  | Analytical far-field extrapolation by fixed multipoles:
  | Hartree multipole sum: apparent total charge =  -0.126290E-05
  Summing up the Hartree potential.
  Time summed over all CPUs for potential: real work      112.564 s, elapsed      118.922 s
  | RMS delta_rho error from multipole expansion :   0.360765E+00


  Evaluating partitioned Hartree potential by multipole expansion.
  | Analytical far-field extrapolation by fixed multipoles:
  | Hartree multipole sum: apparent total charge =   0.136746E-05
  Summing up the Hartree potential.
  Time summed over all CPUs for potential: real work      112.500 s, elapsed      118.858 s
  | RMS delta_rho error from multipole expansion :   0.359692E+00


  Evaluating partitioned Hartree potential by multipole expansion.
  | Analytical far-field extrapolation by fixed multipoles:
  | Hartree multipole sum: apparent total charge =  -0.233542E-03
  Summing up the Hartree potential.
  Time summed over all CPUs for potential: real work      111.430 s, elapsed      117.733 s
  | RMS delta_rho error from multipole expansion :   0.184541E+00

  Integrating first-order-Hamiltonian matrix: batch-based integration.
  Time summed over all CPUs for integration: real work      919.989 s, elapsed      995.663 s
  End CPSCF iteration #    31                  :  max(cpu_time)    wall_clock(cpu1)
  | Time for this iteration                     :      128.592 s         128.612 s
  | first_order_density                         :       37.522 s          37.527 s
  | first_order_potential                       :       22.296 s          22.299 s
  | first_order_H                               :       62.565 s          62.574 s
  | first_order_DM                              :        2.444 s           2.444 s
  | Solution of Sternheimer eqns.               :        2.311 s           2.311 s
------------------------------------------------------------

-------------------------------------------------------------
          Begin CP-self-consistency iteration #   32

  Date     :  20221010, Time     :  002710.268
------------------------------------------------------------

  CPSCF convergence accuracy:
  | Change of first_order_density_matrix     :  0.2667E-02
  Integrating first_order_rho: batch-based integration.
  Time summed over all CPUs for integration: real work      545.060 s, elapsed      597.165 s

  Evaluating partitioned Hartree potential by multipole expansion.
  | Analytical far-field extrapolation by fixed multipoles:
  | Hartree multipole sum: apparent total charge =  -0.126295E-05
  Summing up the Hartree potential.
  Time summed over all CPUs for potential: real work      106.352 s, elapsed      108.169 s
  | RMS delta_rho error from multipole expansion :   0.360766E+00


  Evaluating partitioned Hartree potential by multipole expansion.
  | Analytical far-field extrapolation by fixed multipoles:
  | Hartree multipole sum: apparent total charge =   0.136749E-05
  Summing up the Hartree potential.
  Time summed over all CPUs for potential: real work      110.835 s, elapsed      115.564 s
  | RMS delta_rho error from multipole expansion :   0.359693E+00


  Evaluating partitioned Hartree potential by multipole expansion.
  | Analytical far-field extrapolation by fixed multipoles:
  | Hartree multipole sum: apparent total charge =  -0.233541E-03
  Summing up the Hartree potential.
  Time summed over all CPUs for potential: real work      111.424 s, elapsed      117.739 s
  | RMS delta_rho error from multipole expansion :   0.184542E+00

  Integrating first-order-Hamiltonian matrix: batch-based integration.
  Time summed over all CPUs for integration: real work      919.781 s, elapsed      995.180 s
  End CPSCF iteration #    32                  :  max(cpu_time)    wall_clock(cpu1)
  | Time for this iteration                     :      127.505 s         127.524 s
  | first_order_density                         :       37.332 s          37.336 s
  | first_order_potential                       :       21.414 s          21.417 s
  | first_order_H                               :       62.535 s          62.544 s
  | first_order_DM                              :        2.446 s           2.446 s
  | Solution of Sternheimer eqns.               :        2.324 s           2.325 s
------------------------------------------------------------

-------------------------------------------------------------
          Begin CP-self-consistency iteration #   33

  Date     :  20221010, Time     :  002917.792
------------------------------------------------------------

  CPSCF convergence accuracy:
  | Change of first_order_density_matrix     :  0.2504E-02
  Integrating first_order_rho: batch-based integration.
  Time summed over all CPUs for integration: real work      545.634 s, elapsed      600.153 s

  Evaluating partitioned Hartree potential by multipole expansion.
  | Analytical far-field extrapolation by fixed multipoles:
  | Hartree multipole sum: apparent total charge =  -0.126299E-05
  Summing up the Hartree potential.
  Time summed over all CPUs for potential: real work      112.572 s, elapsed      118.944 s
  | RMS delta_rho error from multipole expansion :   0.360766E+00


  Evaluating partitioned Hartree potential by multipole expansion.
  | Analytical far-field extrapolation by fixed multipoles:
  | Hartree multipole sum: apparent total charge =   0.136752E-05
  Summing up the Hartree potential.
  Time summed over all CPUs for potential: real work      112.513 s, elapsed      118.967 s
  | RMS delta_rho error from multipole expansion :   0.359693E+00


  Evaluating partitioned Hartree potential by multipole expansion.
  | Analytical far-field extrapolation by fixed multipoles:
  | Hartree multipole sum: apparent total charge =  -0.233540E-03
  Summing up the Hartree potential.
  Time summed over all CPUs for potential: real work      111.420 s, elapsed      117.776 s
  | RMS delta_rho error from multipole expansion :   0.184542E+00

  Integrating first-order-Hamiltonian matrix: batch-based integration.
  Time summed over all CPUs for integration: real work      919.885 s, elapsed      994.998 s
  End CPSCF iteration #    33                  :  max(cpu_time)    wall_clock(cpu1)
  | Time for this iteration                     :      128.555 s         128.575 s
  | first_order_density                         :       37.520 s          37.524 s
  | first_order_potential                       :       22.306 s          22.308 s
  | first_order_H                               :       62.523 s          62.533 s
  | first_order_DM                              :        2.444 s           2.445 s
  | Solution of Sternheimer eqns.               :        2.311 s           2.311 s
------------------------------------------------------------

-------------------------------------------------------------
          Begin CP-self-consistency iteration #   34

  Date     :  20221010, Time     :  003126.367
------------------------------------------------------------

  CP-self-consistency cycle converged in   33 iterations

  End CPSCF iteration #    34                  :  max(cpu_time)    wall_clock(cpu1)
  | Time for this iteration                     :        2.780 s           2.781 s
  | first_order_density                         :       37.520 s          37.524 s
  | first_order_potential                       :       22.306 s          22.308 s
  | first_order_H                               :       62.523 s          62.533 s
  | first_order_DM                              :        2.447 s           2.448 s
  | Solution of Sternheimer eqns.               :        2.311 s           2.311 s
------------------------------------------------------------
  Summing up the Hartree potential.
  Time summed over all CPUs for integrate_polarizability: real work        0.086 s, elapsed        0.104 s

DFPT for polarizability:--->
   4846.10753806179        5.35178483788058       -97.6469805767699
   5.35179207295503        4852.90464211396        425.425542861292
   14.0278155911944       -7.90253657488832        1645.56034542445
The mean polarizability is 3781.524175
DFPT polarizability (Bohr^3)        xx        yy        zz        xy        xz        yz
  | Polarizability:--->                      4846.107538062           4852.904642114           1645.560345424              5.351784838            -97.646980577            425.425542861

                                               :  max(cpu_time)    wall_clock(cpu1)
  | Time for polarizability calculation         :        0.007 s           0.007 s
===========================================================================

------------------------------------------------------------------------------
  Final output of selected total energy values:

  The following output summarizes some interesting total energy values
  at the end of a run (AFTER all relaxation, molecular dynamics, etc.).

  | Total energy of the DFT / Hartree-Fock s.c.f. calculation      :       -4882225.058081279 eV
  | Final zero-broadening corrected energy (caution - metals only) :       -4882225.058081279 eV
  | For reference only, the value of 1 Hartree used in FHI-aims is :             27.211384500 eV

  Before relying on these values, please be sure to understand exactly which
  total energy value is referred to by a given number. Different objects may
  all carry the same name 'total energy'. Definitions:

  Total energy of the DFT / Hartree-Fock s.c.f. calculation:
  | Note that this energy does not include ANY quantities calculated after the
  | s.c.f. cycle, in particular not ANY RPA, MP2, etc. many-body perturbation terms.

  Final zero-broadening corrected energy:
  | For metallic systems only, a broadening of the occupation numbers at the Fermi
  | level can be extrapolated back to zero broadening by an electron-gas inspired
  | formula. For all systems that are not real metals, this value can be
  | meaningless and should be avoided.

------------------------------------------------------------------------------
  Methods described in the following list of references were used in this FHI-aims run.
  If you publish the results, please make sure to cite these reference if they apply.
  FHI-aims is an academic code, and for our developers (often, Ph.D. students
  and postdocs), scientific credit in the community is essential.
  Thank you for helping us!

  For any use of FHI-aims, please cite:

    Volker Blum, Ralf Gehrke, Felix Hanke, Paula Havu, Ville Havu,
    Xinguo Ren, Karsten Reuter, and Matthias Scheffler
    'Ab initio molecular simulations with numeric atom-centered orbitals'
    Computer Physics Communications 180, 2175-2196 (2009)
    http://doi.org/10.1016/j.cpc.2009.06.022


  The DFPT (perturbation by an electric field) part of the code was used.
  Here is the corresponding reference:

    Honghui Shang, Nathaniel Raimbault, Mariana Rossi,
    Christian Carbogno, Patrick Rinke and Matthias Scheffler,
    'All-Electron, Real-Space Perturbation Theory for Homogeneous
    Electric Fields: Theory, Implementation, and Application within dft'
    New Journal of Physics, 20(7):073040, 2018


  The ELSI infrastructure was used in your run to solve the Kohn-Sham electronic structure.
  Please check out http://elsi-interchange.org to learn more.
  If scalability is important for your project, please acknowledge ELSI by citing:

    V. W-z. Yu, F. Corsetti, A. Garcia, W. P. Huhn, M. Jacquelin, W. Jia,
    B. Lange, L. Lin, J. Lu, W. Mi, A. Seifitokaldani, A. Vazquez-Mayagoitia,
    C. Yang, H. Yang, and V. Blum
    'ELSI: A unified software interface for Kohn-Sham electronic structure solvers'
    Computer Physics Communications 222, 267-285 (2018).
    http://doi.org/10.1016/j.cpc.2017.09.007


  For the real-space grid partitioning and parallelization used in this calculation, please cite:

    Ville Havu, Volker Blum, Paula Havu, and Matthias Scheffler,
    'Efficient O(N) integration for all-electron electronic structure calculation'
    'using numerically tabulated basis functions'
    Journal of Computational Physics 228, 8367-8379 (2009).
    http://doi.org/10.1016/j.jcp.2009.08.008

  Of course, there are many other important community references, e.g., those cited in the
  above references. Our list is limited to references that describe implementations in the
  FHI-aims code. The reason is purely practical (length of this list) - please credit others as well.

------------------------------------------------------------
          Leaving FHI-aims.
          Date     :  20221010, Time     :  003129.201

          Computational steps:
          | Number of self-consistency cycles          :           66
          | Number of SCF (re)initializations          :            1
          | Number of coupled perturbed self-consistency cycles          :            0
          | Number of CPSCF (re)initializations          :            0

          Detailed time accounting                     :  max(cpu_time)    wall_clock(cpu1)
          | Total time                                  :     5257.939 s        5259.106 s
          | Preparation time                            :        0.389 s           0.422 s
          | Boundary condition initalization            :        0.000 s           0.001 s
          | Grid partitioning                           :        2.276 s           2.276 s
          | Preloading free-atom quantities on grid     :        4.920 s           4.918 s
          | Free-atom superposition energy              :        0.629 s           0.629 s
          | Total time for integrations                 :      318.507 s         318.559 s
          | Transforming ovlp_3fn to ovlp_3KS           :        0.000 s           0.000 s
          | Total time for solution of K.-S. equations  :      114.159 s         114.194 s
          | Total time for density update               :      325.580 s         325.632 s
          | Total time for mixing                       :        0.453 s           0.458 s
          | Total time for Hartree multipole update     :        0.799 s           0.798 s
          | Total time for Hartree multipole sum        :      205.497 s         205.519 s
          | Total time for total energy evaluation      :        0.021 s           0.038 s
          | Total time for scaled ZORA corrections      :        0.000 s           0.000 s
          | Total time first_order_DM                   :       82.895 s          82.907 s
          | Total time first_order_density              :     1228.922 s        1229.052 s
          | Total time first_order_potential            :      731.681 s         731.767 s
          | Total time first_order_H                    :     2050.845 s        2051.154 s
          | Total time solving of Sternheimer equations :       75.700 s          75.713 s
          | Total time for polarizability               :        0.007 s           0.007 s

          Partial memory accounting:
          | Residual value for overall tracked memory usage across tasks:     0.000000 MB (should be 0.000000 MB)
          | Peak values for overall tracked memory usage:
          |   Minimum:     1010.457 MB (on task 10 after allocating DFPT_pulay_mixing::pulay_mix::alphas)
          |   Maximum:     1028.603 MB (on task  0 after allocating DFPT_pulay_mixing::pulay_mix::alphas)
          |   Average:     1018.368 MB
          | Largest tracked array allocation:
          |   Minimum:      269.104 MB (DFPT_pulay_mixing::initialize_pulay_mixing::X_in_diffs on task 10)
          |   Maximum:      275.789 MB (DFPT_pulay_mixing::initialize_pulay_mixing::X_in_diffs on task  0)
          |   Average:      272.018 MB
          Note:  These values currently only include a subset of arrays which are explicitly tracked.
          The "true" memory usage will be greater.

          Have a nice day.
------------------------------------------------------------
