------------------------------------------------------------
          Invoking FHI-aims ...

          When using FHI-aims, please cite the following reference:

            Volker Blum, Ralf Gehrke, Felix Hanke, Paula Havu,
            Ville Havu, Xinguo Ren, Karsten Reuter, and Matthias Scheffler,
            'Ab Initio Molecular Simulations with Numeric Atom-Centered Orbitals',
            Computer Physics Communications 180, 2175-2196 (2009)

          In addition, many other developments in FHI-aims are likely important for
          your particular application. A partial list of references is given at the end of
          this file. Thank you for giving credit to the authors of these developments.

          For any questions about FHI-aims, please visit our slack channel at

            https://fhi-aims.slack.com

          and our main development and support site at

            https://aims-git.rz-berlin.mpg.de .

          The latter site, in particular, has a wiki to collect information, as well
          as an issue tracker to log discussions, suggest improvements, and report issues
          or bugs. https://aims-git.rz-berlin.mpg.de is also the main development site
          of the project and all new and updated code versions can be obtained there.
          Please send an email to aims-coordinators@fhi-berlin.mpg.de and we will add
          you to these sites. They are for you and everyone is welcome there.

------------------------------------------------------------



  Date     :  20221010, Time     :  115013.568
  Time zero on CPU 1             :   0.456167000000000E+00  s.
  Internal wall clock time zero  :           434634613.568  s.

  FHI-aims created a unique identifier for this run for later identification
  aims_uuid : 950515D9-A1BB-4EE9-AC1A-2AD80D5FD976

  Build configuration of the current instance of FHI-aims
  -------------------------------------------------------
  FHI-aims version      : 220429
  Commit number         : 4d0c1dd69
  CMake host system     : Linux-5.3.18-150300.59.87-default
  CMake version         : 3.22.4
  Fortran compiler      : /mpcdf/soft/SLE_15/packages/x86_64/intel_oneapi/2022.1/mpi/2021.5.1/bin/mpiifort (Intel) version 2021.5.0.20211109
  Fortran compiler flags: -O3 -ip -fp-model precise
  C compiler            : /mpcdf/soft/SLE_15/packages/x86_64/intel/2021.5.0/bin/icc (Intel) version 2021.5.0.20211109
  C compiler flags      : -O3 -ip -fp-model precise -std=gnu99
  CUDA compiler         : /mpcdf/soft/SLE_15/packages/x86_64/cuda/11.6.2/bin/nvcc
  CUDA compiler flags   : -O3 -DAdd_ -lcublas
  ELPA2 kernel          : AVX512
  Using MPI
  Using ScaLAPACK
  Using LibXC
  Using CUDA
  Using i-PI
  Using RLSY
  Linking against: /mpcdf/soft/SLE_15/packages/x86_64/cuda/11.6.2/lib64/libcublas.so
                   /mpcdf/soft/SLE_15/packages/x86_64/cuda/11.6.2/lib64/libcudart.so
                   /mpcdf/soft/SLE_15/packages/x86_64/intel_oneapi/2021.3/mkl/latest/lib/intel64/libmkl_intel_lp64.so
                   /mpcdf/soft/SLE_15/packages/x86_64/intel_oneapi/2021.3/mkl/latest/lib/intel64/libmkl_sequential.so
                   /mpcdf/soft/SLE_15/packages/x86_64/intel_oneapi/2021.3/mkl/latest/lib/intel64/libmkl_core.so
                   /mpcdf/soft/SLE_15/packages/x86_64/intel_oneapi/2021.3/mkl/latest/lib/intel64/libmkl_blacs_intelmpi_lp64.so
                   /mpcdf/soft/SLE_15/packages/x86_64/intel_oneapi/2021.3/mkl/latest/lib/intel64/libmkl_scalapack_lp64.so

  Using       16 parallel tasks.
  Task        0 on host adag009 reporting.
  Task        1 on host adag009 reporting.
  Task        2 on host adag009 reporting.
  Task        3 on host adag009 reporting.
  Task        4 on host adag011 reporting.
  Task        5 on host adag011 reporting.
  Task        6 on host adag011 reporting.
  Task        7 on host adag011 reporting.
  Task        8 on host adag012 reporting.
  Task        9 on host adag012 reporting.
  Task       10 on host adag012 reporting.
  Task       11 on host adag012 reporting.
  Task       12 on host adag013 reporting.
  Task       13 on host adag013 reporting.
  Task       14 on host adag013 reporting.
  Task       15 on host adag013 reporting.

  Performing system and environment tests:
  | Environment variable OMP_NUM_THREADS correctly set to 1.
  | Checking for ScaLAPACK...
  | Testing pdtran()...
  | All pdtran() tests passed.

  Obtaining array dimensions for all initial allocations:
  
  -----------------------------------------------------------------------
  Parsing control.in (first pass over file, find array dimensions only).
  The contents of control.in will be repeated verbatim below
  unless switched off by setting 'verbatim_writeout .false.' .
  in the first line of control.in .
  -----------------------------------------------------------------------
  
  ##### Physical settings  ################
  xc                 pw-lda
  spin               none
  #default_initial_moment 1
  charge      0.0
  relativistic       atomic_zora scalar
  #elsi_restart read
  # SCF settings
  # Turns on GPU acceleration everywhere
  #  use_gpu
  
  # Turns OFF GPU acceleration of ELPA - may be necessary if GPU ELPA is slow
    elsi_elpa_gpu 0
  #relax_unit_cell full
  occupation_type gaussian       0.01
  #DFPT polarizability
  #many_body_dispersion_nl    beta=0.81
  
  #final_forces_cleaned               .true.
  #compute_forces                     .true.
  
  #DFPT local_polarizability nearfield
  #DFPT local_parameters numerical zeros.cube zeros.cube tipA_05_vh_ft_0049_3221meV_x1000.cube
  #
  #
  #DFPT_mixing 0.1
  #DFPT_sc_accuracy_dm 1e-2
  #dfpt_pulay_steps
  ################################################################################
  #
  #  FHI-aims code project
  # Volker Blum, Fritz Haber Institute Berlin, 2009
  #
  #  Suggested "tight" defaults for S atom (to be pasted into control.in file)
  #
  #  Revised Jan 04, 2011, following tests (SiC) done by Lydia Nemec:
  #     d and g functions of tier 2 now enabled by default.
  #
  ################################################################################
    species        S
  #     global species definitions
      nucleus             16
      mass                32.065
  #
      l_hartree           6
  #
      cut_pot             5.0          2.0  1.0
      basis_dep_cutoff    1e-4
  #
      radial_base         44 7.0
      radial_multiplier   2
      angular_grids       specified
        division   0.4665  110
        division   0.5810  194
        division   0.7139  302
        division   0.8274  434
  #      division   0.9105  590
  #      division   1.0975  770
  #      division   1.2028  974
  #      outer_grid  974
        outer_grid  434
  ################################################################################
  #
  #  Definition of "minimal" basis
  #
  ################################################################################
  #     valence basis states
      valence      3  s   2.
      valence      3  p   4.
  #     ion occupancy
      ion_occ      3  s   1.
      ion_occ      3  p   3.
  ################################################################################
  #
  #  Suggested additional basis functions. For production calculations,
  #  uncomment them one after another (the most important basis functions are
  #  listed first).
  #
  #  Constructed for dimers: 1.6 A, 1.9 A, 2.5 A, 3.25 A, 4.0 A
  #
  ################################################################################
  #  "First tier" - improvements: -652.81 meV to -45.53 meV
       ionic 3 d auto
       hydro 2 p 1.8
       hydro 4 f 7
       ionic 3 s auto
  #  "Second tier" - improvements: -30.20 meV to -1.74 meV
       hydro 4 d 6.2
       hydro 5 g 10.8
  #     hydro 4 p 4.9
  #     hydro 5 f 10
  #     hydro 1 s 0.8
  #  "Third tier" - improvements: -1.04 meV to -0.20 meV
  #     hydro 3 d 3.9
  #     hydro 3 d 2.7
  #     hydro 5 g 12
  #     hydro 4 p 10.4
  #     hydro 5 f 12.4
  #     hydro 2 s 1.9
  #  "Fourth tier" - improvements: -0.35 meV to -0.06 meV
  #     hydro 4 d 10.4
  #     hydro 4 p 7.2
  #     hydro 4 d 10
  #     hydro 5 g 19.2
  #     hydro 4 s 12
  
  ################################################################################
  #
  # For methods that use the localized form of the "resolution of identity" for
  # the two-electron Coulomb operator (RI_method LVL), particularly Hartree-Fock and
  # hybrid density functional calculations, the highest accuracy can be obtained by
  # uncommenting the line beginning with "for_aux"  below, thus adding an extra g radial
  # function to the construction of the product basis set for the expansion.
  # See Ref. New J. Phys. 17, 093020 (2015) for more information, particularly Figs. 1 and 6.
  #
  ################################################################################
  #
  # for_aux hydro 5 g 6.0
  ################################################################################
  #
  #  FHI-aims code project
  # Volker Blum, Fritz Haber Institute Berlin, 2009
  #
  #  Suggested "tight" defaults for Mo atom (to be pasted into control.in file)
  #
  ################################################################################
    species        Mo
  #     global species definitions
      nucleus             42
      mass                95.94
  #
      l_hartree           6
  #
      cut_pot             5.0  2.0  1.0
      basis_dep_cutoff    1e-4
  #
      radial_base         59 7.0
      radial_multiplier   2
      angular_grids specified
        division   0.3117   50
        division   0.6750  110
        division   1.0351  194
        division   1.2073  302
        division   1.6402  434
  #      division   1.9185  590
  #      division   2.0237  770
  #      division   2.0980  974
  #      division   2.7972 1202
  #      outer_grid  974
        outer_grid  434
  ################################################################################
  #
  #  Definition of "minimal" basis
  #
  ################################################################################
  #     valence basis states
      valence      5  s   1.
      valence      4  p   6.
      valence      4  d   5.
  #     ion occupancy
      ion_occ     5  s   0.
      ion_occ     4  p   6.
      ion_occ     4  d   4.
  ################################################################################
  #
  #  Suggested additional basis functions. For production calculations,
  #  uncomment them one after another (the most important basis functions are
  #  listed first).
  #
  #  Constructed for dimers: 1.675 A, 1.9 A, 2.375 A, 3.00 A, 4.00 A
  #
  ################################################################################
  #  "First tier"  - max. impr. -711.23  meV, min. impr. -21.07 meV
       hydro 4 f 8.4
       hydro 3 d 2.8
       ionic 5 p auto
       hydro 5 g 12
       ionic 5 s auto
  #  "Second tier" - max. impr. -39.38  meV, min. impr. -2.68 meV
  #     hydro 4 f 12.4
  #     hydro 3 d 3.3
  #     hydro 6 h 17.2
  #     hydro 4 f 7.6
  #     hydro 3 p 3.0
  #     hydro 1 s 0.65
  #  "Third tier"  - max. impr. -5.50 meV, min. impr. -0.47 meV
  #     hydro 4 f 29.2
  #     hydro 5 g 11.2
  #     hydro 3 d 6.8
  #     hydro 6 h 14.8
  #     hydro 2 p 2.3
  #     hydro 4 s 3.8
  #  "Fourth tier"  - max. impr. -0.58 meV, min. impr. -0.19 meV
  #     hydro 5 f 6.8
  #     hydro 5 d 14.8
  #     hydro 6 s 7.8
  #     hydro 5 g 20.8
  #     hydro 5 d 10.4
  #     hydro 5 p 9.8
  #  Further functions - -0.17 meV and below
  #     hydro 5 d 3.2
  ################################################################################
  #
  #  FHI-aims code project
  #  Volker Blum, Fritz Haber Institute Berlin, 2009
  #
  #  Suggested "tight" defaults for H atom (to be pasted into control.in file)
  #
  ################################################################################
    species        H
  #     global species definitions
      nucleus             1.0
      mass                1.00794
  #
      l_hartree           6
  #
      cut_pot             4.0  2.0  1.0
      basis_dep_cutoff    1e-4
  #
      radial_base         24 7.0
      radial_multiplier   2
      angular_grids       specified
        division   0.1930   50
        division   0.3175  110
        division   0.4293  194
        division   0.5066  302
        division   0.5626  434
  #      division   0.5922  590
  #      division   0.6227  974
  #      division   0.6868 1202
  #      outer_grid  770
        outer_grid  434
  ################################################################################
  #
  #  Definition of "minimal" basis
  #
  ################################################################################
  #     valence basis states
      valence      1  s   1.0
  #     ion occupancy
      ion_occ      1  s   0.5
  ################################################################################
  #
  #  Suggested additional basis functions. For production calculations,
  #  uncomment them one after another (the most important basis functions are
  #  listed first).
  #
  #  Basis constructed for dimers: 0.5 A, 0.7 A, 1.0 A, 1.5 A, 2.5 A
  #
  ################################################################################
  #  "First tier" - improvements: -1014.90 meV to -62.69 meV
       hydro 2 s 2.1
       hydro 2 p 3.5
  #  "Second tier" - improvements: -12.89 meV to -1.83 meV
       hydro 1 s 0.85
       hydro 2 p 3.7
       hydro 2 s 1.2
       hydro 3 d 7
  #  "Third tier" - improvements: -0.25 meV to -0.12 meV
  #     hydro 4 f 11.2
  #     hydro 3 p 4.8
  #     hydro 4 d 9
  #     hydro 3 s 3.2
  ################################################################################
  #
  # For methods that use the localized form of the "resolution of identity" for
  # the two-electron Coulomb operator (RI_method LVL), particularly Hartree-Fock and
  # hybrid density functional calculations, the highest accuracy can be obtained by
  # uncommenting the line beginning with "for_aux"  below, thus adding an extra g radial
  # function to the construction of the product basis set for the expansion.
  # See Ref. New J. Phys. 17, 093020 (2015) for more information, particularly Figs. 1 and 6.
  #
  ################################################################################
  #
  # for_aux hydro 5 g 6.0
  DFPT local_polarizability nearfield
   DFPT local_parameters numerical zeros.cube zeros.cube tipA_05_vh_ft_0049_3221meV_x1000.cube
  
  -----------------------------------------------------------------------
  Completed first pass over input file control.in .
  -----------------------------------------------------------------------
  
  
  -----------------------------------------------------------------------
  Parsing geometry.in (first pass over file, find array dimensions only).
  The contents of geometry.in will be repeated verbatim below
  unless switched off by setting 'verbatim_writeout .false.' .
  in the first line of geometry.in .
  -----------------------------------------------------------------------
  
  atom -3.34333337 -7.98150974 -5.97221257 S
  atom -3.56302471 -8.16642152 -8.85003580 S
  atom -5.46906103 -5.57692748 -6.55208310 S
  atom -4.89803033 -5.24685636 -9.22797284 S
  atom -6.49266782 -2.53386102 -5.97326816 S
  atom -6.75875630 -2.62842099 -8.85238777 S
  atom -1.65601338 -8.83162580 -7.57741446 Mo
  atom -0.15303239 -8.06545347 -5.97774887 S
  atom -0.18410228 -8.08198111 -9.18982936 S
  atom -3.27568167 -6.03102941 -7.59218824 Mo
  atom -1.75716927 -5.21050950 -6.02649682 S
  atom -1.73905346 -5.30973242 -9.18702556 S
  atom -4.77168727 -3.44900272 -7.59181787 Mo
  atom -3.30603481 -2.54336479 -6.02745815 S
  atom -3.37886428 -2.47144174 -9.18239349 S
  atom -6.37433841 -0.64798238 -7.57698293 Mo
  atom -4.96256426 0.27501624 -5.97331114 S
  atom -4.99177764 0.25235046 -9.19276828 S
  atom 1.38839228 -8.83637492 -7.58570788 Mo
  atom 2.99910438 -8.10326535 -6.02682344 S
  atom 2.98518121 -8.12853730 -9.16313272 S
  atom -0.19215109 -6.20800384 -7.59534792 Mo
  atom 1.41193811 -5.25283105 -6.09516371 S
  atom 1.40725602 -5.30730967 -9.14533707 S
  atom -1.78446066 -3.44012559 -7.64679716 Mo
  atom -0.15785504 -2.46903778 -6.13833209 S
  atom -0.20324021 -2.49897399 -9.19598653 S
  atom -3.37446493 -0.68697001 -7.59185450 Mo
  atom -1.70638205 0.24041416 -6.10492350 S
  atom -1.79531841 0.22465208 -9.16660519 S
  atom -4.85650327 1.98845560 -7.58645928 Mo
  atom -3.39874801 2.99772667 -6.03632024 S
  atom -3.45248679 3.02859816 -9.16929143 S
  atom 4.59775261 -8.83670073 -7.59138959 Mo
  atom 6.16477132 -8.06947802 -5.99320652 S
  atom 6.14482767 -8.08701856 -9.20555114 S
  atom 2.99127857 -6.22073401 -7.60885324 Mo
  atom 4.56331112 -5.28770570 -6.07981723 S
  atom 4.57631618 -5.29073689 -9.13964598 S
  atom 1.39673651 -3.42071958 -7.65885020 Mo
  atom 2.94108289 -2.46561527 -6.12204350 S
  atom 3.01069274 -2.51023063 -9.18241444 S
  atom -0.16444744 -0.66015509 -7.67943252 Mo
  atom 1.39013454 0.23297520 -9.21221601 S
  atom -1.77717688 2.06144239 -7.63286716 Mo
  atom -0.16482456 2.91073268 -6.10491983 S
  atom -0.19533790 2.99570106 -9.16652568 S
  atom -3.25348097 4.76469411 -7.58648727 Mo
  atom -1.82262268 5.71349773 -5.97339190 S
  atom -1.81765897 5.74960410 -9.19299635 S
  atom 7.64447678 -8.83343709 -7.59542213 Mo
  atom 9.53888353 -8.16170876 -6.30762494 S
  atom 9.35028594 -7.99811460 -9.18909374 S
  atom 6.17365538 -6.21397156 -7.60652394 Mo
  atom 7.70959949 -5.30648764 -6.01029167 S
  atom 7.76312778 -5.23489401 -9.16478338 S
  atom 4.57448729 -3.44153178 -7.61000680 Mo
  atom 6.14923493 -2.51480016 -6.06115963 S
  atom 6.18396894 -2.53500186 -9.11713578 S
  atom 2.94693447 -0.66595621 -7.67962006 Mo
  atom 4.50260462 0.23880464 -6.12201877 S
  atom 4.57596229 0.20103016 -9.18238836 S
  atom 1.38619649 2.02567591 -7.67924784 Mo
  atom 2.95602388 2.92412329 -6.13798259 S
  atom 2.95929296 2.97909649 -9.19545316 S
  atom -0.19528346 4.81917160 -7.59183736 Mo
  atom 1.44560114 5.68752567 -6.02632111 S
  atom 1.34866033 5.71557765 -9.18216979 S
  atom -1.72944679 7.39730297 -7.57709569 Mo
  atom -0.15675050 8.44572341 -5.97437141 S
  atom -0.20623988 8.71898371 -8.85349145 S
  atom 9.26751347 -6.03986120 -7.58176028 Mo
  atom 10.87059404 -5.24030913 -5.93468533 S
  atom 11.46974497 -5.58622124 -8.60455744 S
  atom 7.76901880 -3.45009072 -7.56302887 Mo
  atom 9.34718230 -2.46995517 -6.01059555 S
  atom 9.31086856 -2.55242642 -9.16501383 S
  atom 6.16443053 -0.68771485 -7.61007938 Mo
  atom 7.75773697 0.24506116 -6.07996704 S
  atom 7.76660430 0.23542377 -9.13990204 S
  atom 4.55758167 2.05389858 -7.65869997 Mo
  atom 6.15202272 2.95655950 -6.09512697 S
  atom 6.19653654 2.98813993 -9.14528494 S
  atom 2.98374721 4.81888521 -7.64589909 Mo
  atom 4.53115704 5.67908856 -6.02525024 S
  atom 4.62490438 5.71452025 -9.18664783 S
  atom 1.49682509 7.40949005 -7.59040418 Mo
  atom 2.99234575 9.06960886 -6.54006603 S
  atom 2.99196251 8.42383008 -9.22175249 S
  atom 10.76083258 -3.45247028 -7.58227295 Mo
  atom 12.73712986 -2.62802674 -6.31126681 S
  atom 12.49296534 -2.54236533 -9.19290453 S
  atom 9.36484210 -0.68618610 -7.60688667 Mo
  atom 10.96772427 0.24880788 -5.99353828 S
  atom 10.97232287 0.27580894 -9.20585157 S
  atom 7.77982287 2.07297902 -7.60895347 Mo
  atom 9.41412143 3.00729651 -6.02684962 S
  atom 9.42890140 3.03235410 -9.16314898 S
  atom 6.17685300 4.82346275 -7.59516415 Mo
  atom 7.80541590 5.71795185 -5.97760815 S
  atom 7.80396312 5.75334922 -9.18980359 S
  atom 4.48316781 7.40455748 -7.59046673 Mo
  atom 6.13883647 8.43751279 -5.97072636 S
  atom 6.18800065 8.72227373 -8.84866281 S
  atom 12.36894742 -0.65019338 -7.59572917 Mo
  atom 10.84869642 1.98986948 -7.59148715 Mo
  atom 9.24377081 4.76901046 -7.58563071 Mo
  atom 7.71764618 7.40276610 -7.57728515 Mo
  atom -1.40791588 -10.24894725 -6.63908704 H
  atom -1.43277007 -10.24724184 -8.54770994 H
  atom -7.48264332 0.27090516 -6.64054147 H
  atom -7.49329537 0.24400933 -8.55106782 H
  atom 1.50672397 -10.30461460 -6.65649751 H
  atom 1.44693401 -10.31368035 -8.50844154 H
  atom -6.07115052 2.81544294 -6.64919982 H
  atom -6.11158124 2.78319882 -8.50047473 H
  atom 4.54176498 -10.29971771 -6.64547964 H
  atom 4.49243398 -10.31876484 -8.49787589 H
  atom -4.57654420 5.40383444 -6.64902742 H
  atom -4.56968830 5.45399501 -8.50020537 H
  atom 7.41448106 -10.23937903 -6.61994229 H
  atom 7.41053059 -10.25874846 -8.52682988 H
  atom -3.07872327 7.89869673 -6.64028476 H
  atom -3.06154659 7.91957295 -8.55081173 H
  atom 13.47360469 0.24981128 -6.61948402 H
  atom 13.48545551 0.26647784 -8.52647779 H
  atom 12.08809593 2.76907842 -6.64535554 H
  atom 12.07915782 2.82288718 -8.49773450 H
  atom 10.57459760 5.40046068 -6.65637345 H
  atom 10.55244052 5.45754145 -8.50816408 H
  atom 9.06884481 7.89674485 -6.63885644 H
  atom 9.05495157 7.91850286 -8.54756997 H
  atom -0.11981857 9.76265347 -6.40957657 H
  atom 2.99504095 10.21816994 -7.31950458 H
  atom 6.11008987 9.75758295 -6.39806983 H
  atom 12.47714555 -2.44401946 -4.98424041 H
  atom 10.09970411 -4.79547677 -4.89842033 H
  atom 9.24569801 -8.02521126 -4.98178827 H
  atom -4.50035073 -8.61711392 -6.40052307 H
  atom -6.45760544 -6.15044490 -7.34024698 H
  atom -7.61596113 -3.22321169 -6.40632969 H
  atom -6.50954166 -2.44936241 -10.18252455 H
  atom -4.13851365 -4.81188424 -10.27700500 H
  atom -3.28009387 -8.04680668 -10.18011102 H
  atom 10.50368835 -8.62919694 -8.74504244 H
  atom 12.45142148 -6.15270959 -7.80312265 H
  atom 13.61769752 -3.22558057 -8.75352387 H
  atom 6.22564466 8.42024548 -10.17943447 H
  atom 2.99491903 7.55413137 -10.27575603 H
  atom -0.23559495 8.41286860 -10.18351569 H
  
  -----------------------------------------------------------------------
  Completed first pass over input file geometry.in .
  -----------------------------------------------------------------------
  

  Basic array size parameters:
  | Number of species                 :        3
  | Number of atoms                   :      150
  | Max. basis fn. angular momentum   :        4
  | Max. atomic/ionic basis occupied n:        5
  | Max. number of basis fn. types    :        3
  | Max. radial fns per species/type  :       10
  | Max. logarithmic grid size        :     1436
  | Max. radial integration grid size :      119
  | Max. angular integration grid size:      434
  | Max. angular grid division number :        8
  | Radial grid for Hartree potential :     1436
  | Number of spin channels           :        1

------------------------------------------------------------
          Reading file control.in.
------------------------------------------------------------
  XC: Using Perdew-Wang parametrisation of Ceperley-Alder LDA.
  Spin treatment: No spin polarisation.
  Charge =   0.000000E+00: Neutral system requested explicitly.
  Scalar relativistic treatment of kinetic energy: on-site free-atom approximation to ZORA.
  Occupation type: Gaussian broadening, width =   0.100000E-01 eV.
 
  Reading configuration options for species S                   .
  | Found nuclear charge :  16.0000
  | Found atomic mass :    32.0650000000000      amu
  | Found l_max for Hartree potential  :   6
  | Found cutoff potl. onset [A], width [A], scale factor :    5.00000    2.00000    1.00000
  | Threshold for basis-dependent cutoff potential is   0.100000E-03
  | Found data for basic radial integration grid :    44 points, outermost radius =    7.000 A
  | Found multiplier for basic radial grid :   2
  | Found angular grid specification: user-specified.
  | Specified grid contains     5 separate shells.
  | Check grid settings after all constraints further below.
  | Found free-atom valence shell :  3 s   2.000
  | Found free-atom valence shell :  3 p   4.000
  | Found free-ion valence shell :  3 s   1.000
  | Found free-ion valence shell :  3 p   3.000
  | Found ionic basis function :  3 d , default cutoff radius.
  | Found hydrogenic basis function :  2 p   1.800
  | Found hydrogenic basis function :  4 f   7.000
  | Found ionic basis function :  3 s , default cutoff radius.
  | Found hydrogenic basis function :  4 d   6.200
  | Found hydrogenic basis function :  5 g  10.800
  Species S                   : Missing cutoff potential type.
  Defaulting to exp(1/x)/(1-x)^2 type cutoff potential.
  Species S : No 'logarithmic' tag. Using default grid for free atom:
  | Default logarithmic grid data [bohr] : 0.1000E-03 0.1000E+03 0.1012E+01
  | Will include ionic basis functions of  2.0-fold positive S                    ion.
  Species S : On-site basis accuracy parameter (for Gram-Schmidt orthonormalisation) not specified.
  Using default value basis_acc =  0.1000000E-03.
  Species S                   : Using default innermost maximum threshold i_radial=  2 for radial functions.
  Species S                   : Default cutoff onset for free atom density etc. : 0.50000000E+01 AA.
  Species S                   : Basic radial grid will be enhanced according to radial_multiplier =   2, to contain    89 grid points.
 
  Reading configuration options for species Mo                  .
  | Found nuclear charge :  42.0000
  | Found atomic mass :    95.9400000000000      amu
  | Found l_max for Hartree potential  :   6
  | Found cutoff potl. onset [A], width [A], scale factor :    5.00000    2.00000    1.00000
  | Threshold for basis-dependent cutoff potential is   0.100000E-03
  | Found data for basic radial integration grid :    59 points, outermost radius =    7.000 A
  | Found multiplier for basic radial grid :   2
  | Found angular grid specification: user-specified.
  | Specified grid contains     6 separate shells.
  | Check grid settings after all constraints further below.
  | Found free-atom valence shell :  5 s   1.000
  | Found free-atom valence shell :  4 p   6.000
  | Found free-atom valence shell :  4 d   5.000
  | Found free-ion valence shell :  5 s   0.000
  | Found free-ion valence shell :  4 p   6.000
  | Found free-ion valence shell :  4 d   4.000
  | Found hydrogenic basis function :  4 f   8.400
  | Found hydrogenic basis function :  3 d   2.800
  | Found ionic basis function :  5 p , default cutoff radius.
  | Found hydrogenic basis function :  5 g  12.000
  | Found ionic basis function :  5 s , default cutoff radius.
  Species Mo                  : Missing cutoff potential type.
  Defaulting to exp(1/x)/(1-x)^2 type cutoff potential.
  Species Mo: No 'logarithmic' tag. Using default grid for free atom:
  | Default logarithmic grid data [bohr] : 0.1000E-03 0.1000E+03 0.1012E+01
  | Will include ionic basis functions of  2.0-fold positive Mo                   ion.
  Species Mo: On-site basis accuracy parameter (for Gram-Schmidt orthonormalisation) not specified.
  Using default value basis_acc =  0.1000000E-03.
  Species Mo                  : Using default innermost maximum threshold i_radial=  2 for radial functions.
  Species Mo                  : Default cutoff onset for free atom density etc. : 0.50000000E+01 AA.
  Species Mo                  : Basic radial grid will be enhanced according to radial_multiplier =   2, to contain   119 grid points.
 
  Reading configuration options for species H                   .
  | Found nuclear charge :   1.0000
  | Found atomic mass :    1.00794000000000      amu
  | Found l_max for Hartree potential  :   6
  | Found cutoff potl. onset [A], width [A], scale factor :    4.00000    2.00000    1.00000
  | Threshold for basis-dependent cutoff potential is   0.100000E-03
  | Found data for basic radial integration grid :    24 points, outermost radius =    7.000 A
  | Found multiplier for basic radial grid :   2
  | Found angular grid specification: user-specified.
  | Specified grid contains     6 separate shells.
  | Check grid settings after all constraints further below.
  | Found free-atom valence shell :  1 s   1.000
  | Found free-ion valence shell :  1 s   0.500
  | Found hydrogenic basis function :  2 s   2.100
  | Found hydrogenic basis function :  2 p   3.500
  | Found hydrogenic basis function :  1 s   0.850
  | Found hydrogenic basis function :  2 p   3.700
  | Found hydrogenic basis function :  2 s   1.200
  | Found hydrogenic basis function :  3 d   7.000
  Species H                   : Missing cutoff potential type.
  Defaulting to exp(1/x)/(1-x)^2 type cutoff potential.
  Species H : No 'logarithmic' tag. Using default grid for free atom:
  | Default logarithmic grid data [bohr] : 0.1000E-03 0.1000E+03 0.1012E+01
  Species H : On-site basis accuracy parameter (for Gram-Schmidt orthonormalisation) not specified.
  Using default value basis_acc =  0.1000000E-03.
  Species H                   : Using default innermost maximum threshold i_radial=  2 for radial functions.
  Species H                   : Default cutoff onset for free atom density etc. : 0.40000000E+01 AA.
  Species H                   : Basic radial grid will be enhanced according to radial_multiplier =   2, to contain    49 grid points.
 
  Finished reading input file 'control.in'.
 
------------------------------------------------------------


------------------------------------------------------------
          Reading geometry description geometry.in.
------------------------------------------------------------
  | The smallest distance between any two atoms is         1.36470956 AA.
  | The first atom of this pair is atom number                     52 .
  | The second atom of this pair is atom number                   138 .
  Input structure read successfully.
  The structure contains      150 atoms,  and a total of       2732.000 electrons.

  Input geometry:
  | No unit cell requested.
  | Atomic structure:
  |       Atom                x [A]            y [A]            z [A]
  |    1: Species S            -3.34333337       -7.98150974       -5.97221257
  |    2: Species S            -3.56302471       -8.16642152       -8.85003580
  |    3: Species S            -5.46906103       -5.57692748       -6.55208310
  |    4: Species S            -4.89803033       -5.24685636       -9.22797284
  |    5: Species S            -6.49266782       -2.53386102       -5.97326816
  |    6: Species S            -6.75875630       -2.62842099       -8.85238777
  |    7: Species Mo           -1.65601338       -8.83162580       -7.57741446
  |    8: Species S            -0.15303239       -8.06545347       -5.97774887
  |    9: Species S            -0.18410228       -8.08198111       -9.18982936
  |   10: Species Mo           -3.27568167       -6.03102941       -7.59218824
  |   11: Species S            -1.75716927       -5.21050950       -6.02649682
  |   12: Species S            -1.73905346       -5.30973242       -9.18702556
  |   13: Species Mo           -4.77168727       -3.44900272       -7.59181787
  |   14: Species S            -3.30603481       -2.54336479       -6.02745815
  |   15: Species S            -3.37886428       -2.47144174       -9.18239349
  |   16: Species Mo           -6.37433841       -0.64798238       -7.57698293
  |   17: Species S            -4.96256426        0.27501624       -5.97331114
  |   18: Species S            -4.99177764        0.25235046       -9.19276828
  |   19: Species Mo            1.38839228       -8.83637492       -7.58570788
  |   20: Species S             2.99910438       -8.10326535       -6.02682344
  |   21: Species S             2.98518121       -8.12853730       -9.16313272
  |   22: Species Mo           -0.19215109       -6.20800384       -7.59534792
  |   23: Species S             1.41193811       -5.25283105       -6.09516371
  |   24: Species S             1.40725602       -5.30730967       -9.14533707
  |   25: Species Mo           -1.78446066       -3.44012559       -7.64679716
  |   26: Species S            -0.15785504       -2.46903778       -6.13833209
  |   27: Species S            -0.20324021       -2.49897399       -9.19598653
  |   28: Species Mo           -3.37446493       -0.68697001       -7.59185450
  |   29: Species S            -1.70638205        0.24041416       -6.10492350
  |   30: Species S            -1.79531841        0.22465208       -9.16660519
  |   31: Species Mo           -4.85650327        1.98845560       -7.58645928
  |   32: Species S            -3.39874801        2.99772667       -6.03632024
  |   33: Species S            -3.45248679        3.02859816       -9.16929143
  |   34: Species Mo            4.59775261       -8.83670073       -7.59138959
  |   35: Species S             6.16477132       -8.06947802       -5.99320652
  |   36: Species S             6.14482767       -8.08701856       -9.20555114
  |   37: Species Mo            2.99127857       -6.22073401       -7.60885324
  |   38: Species S             4.56331112       -5.28770570       -6.07981723
  |   39: Species S             4.57631618       -5.29073689       -9.13964598
  |   40: Species Mo            1.39673651       -3.42071958       -7.65885020
  |   41: Species S             2.94108289       -2.46561527       -6.12204350
  |   42: Species S             3.01069274       -2.51023063       -9.18241444
  |   43: Species Mo           -0.16444744       -0.66015509       -7.67943252
  |   44: Species S             1.39013454        0.23297520       -9.21221601
  |   45: Species Mo           -1.77717688        2.06144239       -7.63286716
  |   46: Species S            -0.16482456        2.91073268       -6.10491983
  |   47: Species S            -0.19533790        2.99570106       -9.16652568
  |   48: Species Mo           -3.25348097        4.76469411       -7.58648727
  |   49: Species S            -1.82262268        5.71349773       -5.97339190
  |   50: Species S            -1.81765897        5.74960410       -9.19299635
  |   51: Species Mo            7.64447678       -8.83343709       -7.59542213
  |   52: Species S             9.53888353       -8.16170876       -6.30762494
  |   53: Species S             9.35028594       -7.99811460       -9.18909374
  |   54: Species Mo            6.17365538       -6.21397156       -7.60652394
  |   55: Species S             7.70959949       -5.30648764       -6.01029167
  |   56: Species S             7.76312778       -5.23489401       -9.16478338
  |   57: Species Mo            4.57448729       -3.44153178       -7.61000680
  |   58: Species S             6.14923493       -2.51480016       -6.06115963
  |   59: Species S             6.18396894       -2.53500186       -9.11713578
  |   60: Species Mo            2.94693447       -0.66595621       -7.67962006
  |   61: Species S             4.50260462        0.23880464       -6.12201877
  |   62: Species S             4.57596229        0.20103016       -9.18238836
  |   63: Species Mo            1.38619649        2.02567591       -7.67924784
  |   64: Species S             2.95602388        2.92412329       -6.13798259
  |   65: Species S             2.95929296        2.97909649       -9.19545316
  |   66: Species Mo           -0.19528346        4.81917160       -7.59183736
  |   67: Species S             1.44560114        5.68752567       -6.02632111
  |   68: Species S             1.34866033        5.71557765       -9.18216979
  |   69: Species Mo           -1.72944679        7.39730297       -7.57709569
  |   70: Species S            -0.15675050        8.44572341       -5.97437141
  |   71: Species S            -0.20623988        8.71898371       -8.85349145
  |   72: Species Mo            9.26751347       -6.03986120       -7.58176028
  |   73: Species S            10.87059404       -5.24030913       -5.93468533
  |   74: Species S            11.46974497       -5.58622124       -8.60455744
  |   75: Species Mo            7.76901880       -3.45009072       -7.56302887
  |   76: Species S             9.34718230       -2.46995517       -6.01059555
  |   77: Species S             9.31086856       -2.55242642       -9.16501383
  |   78: Species Mo            6.16443053       -0.68771485       -7.61007938
  |   79: Species S             7.75773697        0.24506116       -6.07996704
  |   80: Species S             7.76660430        0.23542377       -9.13990204
  |   81: Species Mo            4.55758167        2.05389858       -7.65869997
  |   82: Species S             6.15202272        2.95655950       -6.09512697
  |   83: Species S             6.19653654        2.98813993       -9.14528494
  |   84: Species Mo            2.98374721        4.81888521       -7.64589909
  |   85: Species S             4.53115704        5.67908856       -6.02525024
  |   86: Species S             4.62490438        5.71452025       -9.18664783
  |   87: Species Mo            1.49682509        7.40949005       -7.59040418
  |   88: Species S             2.99234575        9.06960886       -6.54006603
  |   89: Species S             2.99196251        8.42383008       -9.22175249
  |   90: Species Mo           10.76083258       -3.45247028       -7.58227295
  |   91: Species S            12.73712986       -2.62802674       -6.31126681
  |   92: Species S            12.49296534       -2.54236533       -9.19290453
  |   93: Species Mo            9.36484210       -0.68618610       -7.60688667
  |   94: Species S            10.96772427        0.24880788       -5.99353828
  |   95: Species S            10.97232287        0.27580894       -9.20585157
  |   96: Species Mo            7.77982287        2.07297902       -7.60895347
  |   97: Species S             9.41412143        3.00729651       -6.02684962
  |   98: Species S             9.42890140        3.03235410       -9.16314898
  |   99: Species Mo            6.17685300        4.82346275       -7.59516415
  |  100: Species S             7.80541590        5.71795185       -5.97760815
  |  101: Species S             7.80396312        5.75334922       -9.18980359
  |  102: Species Mo            4.48316781        7.40455748       -7.59046673
  |  103: Species S             6.13883647        8.43751279       -5.97072636
  |  104: Species S             6.18800065        8.72227373       -8.84866281
  |  105: Species Mo           12.36894742       -0.65019338       -7.59572917
  |  106: Species Mo           10.84869642        1.98986948       -7.59148715
  |  107: Species Mo            9.24377081        4.76901046       -7.58563071
  |  108: Species Mo            7.71764618        7.40276610       -7.57728515
  |  109: Species H            -1.40791588      -10.24894725       -6.63908704
  |  110: Species H            -1.43277007      -10.24724184       -8.54770994
  |  111: Species H            -7.48264332        0.27090516       -6.64054147
  |  112: Species H            -7.49329537        0.24400933       -8.55106782
  |  113: Species H             1.50672397      -10.30461460       -6.65649751
  |  114: Species H             1.44693401      -10.31368035       -8.50844154
  |  115: Species H            -6.07115052        2.81544294       -6.64919982
  |  116: Species H            -6.11158124        2.78319882       -8.50047473
  |  117: Species H             4.54176498      -10.29971771       -6.64547964
  |  118: Species H             4.49243398      -10.31876484       -8.49787589
  |  119: Species H            -4.57654420        5.40383444       -6.64902742
  |  120: Species H            -4.56968830        5.45399501       -8.50020537
  |  121: Species H             7.41448106      -10.23937903       -6.61994229
  |  122: Species H             7.41053059      -10.25874846       -8.52682988
  |  123: Species H            -3.07872327        7.89869673       -6.64028476
  |  124: Species H            -3.06154659        7.91957295       -8.55081173
  |  125: Species H            13.47360469        0.24981128       -6.61948402
  |  126: Species H            13.48545551        0.26647784       -8.52647779
  |  127: Species H            12.08809593        2.76907842       -6.64535554
  |  128: Species H            12.07915782        2.82288718       -8.49773450
  |  129: Species H            10.57459760        5.40046068       -6.65637345
  |  130: Species H            10.55244052        5.45754145       -8.50816408
  |  131: Species H             9.06884481        7.89674485       -6.63885644
  |  132: Species H             9.05495157        7.91850286       -8.54756997
  |  133: Species H            -0.11981857        9.76265347       -6.40957657
  |  134: Species H             2.99504095       10.21816994       -7.31950458
  |  135: Species H             6.11008987        9.75758295       -6.39806983
  |  136: Species H            12.47714555       -2.44401946       -4.98424041
  |  137: Species H            10.09970411       -4.79547677       -4.89842033
  |  138: Species H             9.24569801       -8.02521126       -4.98178827
  |  139: Species H            -4.50035073       -8.61711392       -6.40052307
  |  140: Species H            -6.45760544       -6.15044490       -7.34024698
  |  141: Species H            -7.61596113       -3.22321169       -6.40632969
  |  142: Species H            -6.50954166       -2.44936241      -10.18252455
  |  143: Species H            -4.13851365       -4.81188424      -10.27700500
  |  144: Species H            -3.28009387       -8.04680668      -10.18011102
  |  145: Species H            10.50368835       -8.62919694       -8.74504244
  |  146: Species H            12.45142148       -6.15270959       -7.80312265
  |  147: Species H            13.61769752       -3.22558057       -8.75352387
  |  148: Species H             6.22564466        8.42024548      -10.17943447
  |  149: Species H             2.99491903        7.55413137      -10.27575603
  |  150: Species H            -0.23559495        8.41286860      -10.18351569

 
  Finished reading input file 'control.in'.
 

------------------------------------------------------------
          Reading geometry description geometry.in.
------------------------------------------------------------
 
  Consistency checks for stacksize environment parameter are next.
 
  | Maximum stacksize for task 0: unlimited
  | Maximum stacksize for task 1: unlimited
  | Maximum stacksize for task 2: unlimited
  | Maximum stacksize for task 3: unlimited
  | Maximum stacksize for task 4: unlimited
  | Maximum stacksize for task 5: unlimited
  | Maximum stacksize for task 6: unlimited
  | Maximum stacksize for task 7: unlimited
  | Maximum stacksize for task 8: unlimited
  | Maximum stacksize for task 9: unlimited
  | Maximum stacksize for task 10: unlimited
  | Maximum stacksize for task 11: unlimited
  | Maximum stacksize for task 12: unlimited
  | Maximum stacksize for task 13: unlimited
  | Maximum stacksize for task 14: unlimited
  | Maximum stacksize for task 15: unlimited
  | Current stacksize for task 0: unlimited
  | Current stacksize for task 1: unlimited
  | Current stacksize for task 2: unlimited
  | Current stacksize for task 3: unlimited
  | Current stacksize for task 4: unlimited
  | Current stacksize for task 5: unlimited
  | Current stacksize for task 6: unlimited
  | Current stacksize for task 7: unlimited
  | Current stacksize for task 8: unlimited
  | Current stacksize for task 9: unlimited
  | Current stacksize for task 10: unlimited
  | Current stacksize for task 11: unlimited
  | Current stacksize for task 12: unlimited
  | Current stacksize for task 13: unlimited
  | Current stacksize for task 14: unlimited
  | Current stacksize for task 15: unlimited
 
  Consistency checks for the contents of control.in are next.
 
  MPI_IN_PLACE appears to work with this MPI implementation.
  | Keeping use_mpi_in_place .true. (see manual).
  Target number of points in a grid batch is not set. Defaulting to  100
  Method for grid partitioning is not set. Defaulting to parallel hash+maxmin partitioning.
  Batch size limit is not set. Defaulting to    200
  By default, will store active basis functions for each batch.
  If in need of memory, prune_basis_once .false. can be used to disable this option.
  communication_type for Hartree potential was not specified.
  Defaulting to calc_hartree .
  Defaulting to Pulay charge density mixer.
  Pulay mixer: Number of relevant iterations not set.
  Defaulting to    8 iterations.
  Pulay mixer: Number of initial linear mixing iterations not set.
  Defaulting to    0 iterations.
  Work space size for distributed Hartree potential not set.
  Defaulting to   0.200000E+03 MB.
  Mixing parameter for charge density mixing has not been set.
  Using default: charge_mix_param =     0.0500.
  The mixing parameter will be adjusted in iteration number     2 of the first full s.c.f. cycle only.
  Algorithm-dependent basis array size parameters:
  | n_max_pulay                         :        8
  Maximum number of self-consistency iterations not provided.
  Presetting  1000 iterations.
  Presetting      1001 iterations before the initial mixing cycle
  is restarted anyway using the sc_init_iter criterion / keyword.
  Presetting a factor      1.000 between actual scf density residual
  and density convergence criterion sc_accuracy_rho below which sc_init_iter
  takes no effect.
 * No s.c.f. convergence criteria (sc_accuracy_*) were provided in control.in.
 * The run will proceed with a reasonable default guess, but please check whether.
 * the s.c.f. cycles seem to take too much or too little time.
  Calculation of forces was not defined in control.in. No forces will be calculated.
  Geometry relaxation not requested: no relaxation will be performed.
 * Notice: The s.c.f. convergence criterion sc_accuracy_rho was not provided.
 * We used to stop in this case, and ask the user to provide reasonable
 * scf convergence criteria. However, this led some users to employ criteria
 * that led to extremely long run times, e.g., for simple relaxation.
 * We now preset a default value for sc_accuracy_rho if it is not set.
 * You may still wish to check if this setting is too tight or too loose for your needs.
 * Based on n_atoms and forces and force-correction status, FHI-aims chose sc_accuracy_rho =  0.400000E-04 .
  No accuracy limit for integral partition fn. given. Defaulting to  0.1000E-14.
  No threshold value for u(r) in integrations given. Defaulting to  0.1000E-05.
  No accuracy for occupation numbers given. Defaulting to  0.1000E-12.
  No threshold value for occupation numbers given. Defaulting to  0.0000E+00.
  No accuracy for fermi level given. Defaulting to  0.1000E-19.
  Maximum # of iterations to find E_F not set. Defaulting to  200.
  Preferred method for the eigenvalue solver ('KS_method') not specified in 'control.in'.
  Calling BLACS routine to test compilation state
  Since ScaLAPACK support is enabled, defaulting to ELPA (via ELSI).
  Will not use alltoall communication since running on < 1024 CPUs.
  Threshold for basis singularities not set.
  Default threshold for basis singularities:  0.1000E-04
  partition_type (choice of integration weights) for integrals was not specified.
  | Using a version of the partition function of Stratmann and coworkers ('stratmann_sparse').
  | At each grid point, the set of atoms used to build the partition table is smoothly restricted to
  | only those atoms whose free-atom density would be non-zero at that grid point.
  Partitioning for Hartree potential was not defined. Using partition_type for integrals.
  | Adjusted default value of keyword multip_moments_threshold to:       0.10000000E-11
  | This value may affect high angular momentum components of the Hartree potential in periodic systems.
  No q(lm)/r^(l+1) cutoff set for long-range Hartree potential.
  | Using default value of  0.100000E-09 .
  | Verify using the multipole_threshold keyword.
  Defaulting to new monopole extrapolation.
  Density update method: automatic selection selected.
  WARNING: Switching off the compensation of charge integration errors
  on the 3D integration grid, since you have requested a DFPT calculation.
  This is unfortunately necessary since "compensate_multipole_errors" is
  not yet implemented for DFPT.
  Use the "compensate_multipole_errors" flag to overwrite this behaviour.
  Set 'collect_eigenvectors' to be '.true.' for use_density_matrix .false.
 
  Consistency checks for the contents of geometry.in are next.
 
  Number of empty states per atom not set in control.in .
  | Since you are using a method that relies on the unoccupied spectrum
  | (MP2,GW,RPA et al.), will use the full Hamiltonian size (see below)
  | as the max. possible number of states (occupied plus empty).

  Structure-dependent array size parameters: 
  | Maximum number of distinct radial functions  :       33
  | Maximum number of basis functions            :     5212
  | Number of Kohn-Sham states (occupied + empty):     5212
------------------------------------------------------------

------------------------------------------------------------
          Preparing all fixed parts of the calculation.
------------------------------------------------------------
  Determining machine precision:
    2.225073858507201E-308
  Setting up grids for atomic and cluster calculations.

  Creating wave function, potential, and density for free atoms.
  Runtime choices for atomic solver:
  | atomic solver xc        : PW-LDA
  | compute density gradient: 0
  | compute kinetic density : F

  Species: S

  List of occupied orbitals and eigenvalues:
    n    l              occ      energy [Ha]    energy [eV]
    1    0           2.0000       -88.357757     -2404.3369
    2    0           2.0000        -7.748481      -210.8469
    3    0           2.0000        -0.634998       -17.2792
    2    1           6.0000        -5.752748      -156.5402
    3    1           4.0000        -0.261122        -7.1055


  Species: Mo

  List of occupied orbitals and eigenvalues:
    n    l              occ      energy [Ha]    energy [eV]
    1    0           2.0000      -744.284823    -20253.0205
    2    0           2.0000      -103.173948     -2807.5060
    3    0           2.0000       -17.480044      -475.6562
    4    0           2.0000        -2.365991       -64.3819
    5    0           1.0000        -0.157972        -4.2986
    2    1           6.0000       -92.280153     -2511.0707
    3    1           6.0000       -13.927658      -378.9909
    4    1           6.0000        -1.416563       -38.5466
    3    2          10.0000        -8.135711      -221.3840
    4    2           5.0000        -0.143782        -3.9125


  Species: H

  List of occupied orbitals and eigenvalues:
    n    l              occ      energy [Ha]    energy [eV]
    1    0           1.0000        -0.233224        -6.3463


  Adding cutoff potential to free-atom effective potential.
  Creating fixed part of basis set: Ionic, confined, hydrogenic.
 
  S                    ion:

  List of free ionic orbitals and eigenvalues:
    n    l      energy [Ha]    energy [eV]
    1    0       -89.377212     -2432.0777
    2    0        -8.738531      -237.7875
    3    0        -1.470337       -40.0099
    2    1        -6.744772      -183.5346
    3    1        -1.051741       -28.6193


  List of ionic basis orbitals and eigenvalues:
    n    l      energy [Ha]    energy [eV]    outer radius [A]
    3    2        -0.499400       -13.5894       5.796302
    3    0        -1.470331       -40.0097       3.967934

 
  S                    hydrogenic:
 
  List of hydrogenic basis orbitals: 
    n    l      effective z      eigenvalue [eV]  inner max. [A]     outer max. [A]     outer radius [A]   
    2    1         1.800000       -11.0199           1.182904           1.182904           6.391826
    4    3         7.000000       -41.6672           1.212182           1.212182           5.129305
    4    2         6.200000       -32.6874           0.582121           1.814567           5.939768
    5    4        10.800000       -63.4785           1.227092           1.227092           4.766538
 
 
  Mo                   ion:

  List of free ionic orbitals and eigenvalues:
    n    l      energy [Ha]    energy [eV]
    1    0      -744.986513    -20272.1144
    2    0      -103.864343     -2826.2926
    3    0       -18.167662      -494.3672
    4    0        -3.044920       -82.8565
    2    1       -92.970248     -2529.8492
    3    1       -14.615180      -397.6993
    4    1        -2.090292       -56.8797
    3    2        -8.823253      -240.0929
    4    2        -0.773904       -21.0590


  List of ionic basis orbitals and eigenvalues:
    n    l      energy [Ha]    energy [eV]    outer radius [A]
    5    1        -0.470923       -12.8145       6.396256
    5    0        -0.661228       -17.9929       5.729842

 
  Mo                   hydrogenic:
 
  List of hydrogenic basis orbitals: 
    n    l      effective z      eigenvalue [eV]  inner max. [A]     outer max. [A]     outer radius [A]   
    4    3         8.400000       -60.0010           1.009788           1.009788           4.487018
    3    2         2.800000       -11.8472           1.708156           1.708156           6.396256
    5    4        12.000000       -78.3687           1.100005           1.100005           4.432498
 
 
  H                    hydrogenic:
 
  List of hydrogenic basis orbitals: 
    n    l      effective z      eigenvalue [eV]  inner max. [A]     outer max. [A]     outer radius [A]   
    2    0         2.100000       -14.9965           0.193243           1.317208           5.373006
    2    1         3.500000       -41.6672           0.602369           0.602369           4.056063
    1    0         0.850000        -9.8292           0.624871           0.624871           5.373006
    2    1         3.700000       -46.5653           0.573622           0.573622           3.910002
    2    0         1.200000        -4.5995           0.334980           2.228188           5.505995
    3    2         7.000000       -74.0753           0.680699           0.680699           3.769201
 
  Creating atomic-like basis functions for current effective potential.

  Species S                   :

  List of atomic basis orbitals and eigenvalues:
    n    l      energy [Ha]    energy [eV]    outer radius [A]
    1    0       -88.357757     -2404.3369       0.682391
    2    0        -7.748481      -210.8469       2.317169
    3    0        -0.634998       -17.2792       6.086785
    2    1        -5.752748      -156.5402       2.586670
    3    1        -0.261122        -7.1055       6.314162


  Species Mo                  :

  List of atomic basis orbitals and eigenvalues:
    n    l      energy [Ha]    energy [eV]    outer radius [A]
    1    0      -744.284823    -20253.0205       0.247552
    2    0      -103.173948     -2807.5060       0.682864
    3    0       -17.480044      -475.6562       1.646644
    4    0        -2.365991       -64.3819       4.220963
    5    0        -0.157972        -4.2986       6.396256
    2    1       -92.280153     -2511.0707       0.699766
    3    1       -13.927658      -378.9909       1.793761
    4    1        -1.416563       -38.5466       5.195995
    3    2        -8.135711      -221.3840       2.181285
    4    2        -0.143782        -3.9125       6.318538


  Species H                   :

  List of atomic basis orbitals and eigenvalues:
    n    l      energy [Ha]    energy [eV]    outer radius [A]
    1    0        -0.233224        -6.3463       5.373006

  Assembling full basis from fixed parts.
  | Species S :   atomic orbital   1 s accepted.
  | Species S :   atomic orbital   2 s accepted.
  | Species S :    ionic orbital   3 s accepted.
  | Species S :   atomic orbital   3 s accepted.
  | Species S :   atomic orbital   2 p accepted.
  | Species S :   atomic orbital   3 p accepted.
  | Species S :    hydro orbital   2 p accepted.
  | Species S :    ionic orbital   3 d accepted.
  | Species S :    hydro orbital   4 d accepted.
  | Species S :    hydro orbital   4 f accepted.
  | Species S :    hydro orbital   5 g accepted.
  | Species Mo :   atomic orbital   1 s accepted.
  | Species Mo :   atomic orbital   2 s accepted.
  | Species Mo :   atomic orbital   3 s accepted.
  | Species Mo :   atomic orbital   4 s accepted.
  | Species Mo :    ionic orbital   5 s accepted.
  | Species Mo :   atomic orbital   5 s accepted.
  | Species Mo :   atomic orbital   2 p accepted.
  | Species Mo :   atomic orbital   3 p accepted.
  | Species Mo :   atomic orbital   4 p accepted.
  | Species Mo :    ionic orbital   5 p accepted.
  | Species Mo :   atomic orbital   3 d accepted.
  | Species Mo :   atomic orbital   4 d accepted.
  | Species Mo :    hydro orbital   3 d accepted.
  | Species Mo :    hydro orbital   4 f accepted.
  | Species Mo :    hydro orbital   5 g accepted.
  | Species H :   atomic orbital   1 s accepted.
  | Species H :    hydro orbital   2 s accepted.
  | Species H :    hydro orbital   1 s accepted.
  | Species H :    hydro orbital   2 s accepted.
  | Species H :    hydro orbital   2 p accepted.
  | Species H :    hydro orbital   2 p accepted.
  | Species H :    hydro orbital   3 d accepted.
 
  Basis size parameters after reduction:
  | Total number of radial functions:       33
  | Total number of basis functions :     5212
 
  Per-task memory consumption for arrays in subroutine allocate_ext:
  |          12.258764MB.
  Testing on-site integration grid accuracy.
  |  Species  Function  <phi|h_atom|phi> (log., in eV)  <phi|h_atom|phi> (rad., in eV)
           1        1              -2404.3368913678              -2404.3368446658
           1        2               -210.8468860906               -210.8468854578
           1        3                -17.0127834490                -17.0127833559
           1        4                  6.9208365659                  6.9208447456
           1        5               -156.5402375830               -156.5402374480
           1        6                 -7.1055043646                 -7.1055090720
           1        7                  6.5639545403                  6.5637213036
           1        8                  5.9411260603                  5.9411097916
           1        9                 19.1038416630                 19.1038584096
           1       10                 24.5856802797                 24.5856785969
           1       11                 47.4218547171                 47.4218555581
           2       12             -20253.0205066639             -20253.0189838258
           2       13              -2807.5059682553              -2807.5059423397
           2       14               -475.6561857212               -475.6561830241
           2       15                -64.3818815892                -64.3818808850
           2       16                 -3.6420671366                 -3.6420649411
           2       17                  3.5089939515                  3.5050924598
           2       18              -2511.0707375354              -2511.0707355215
           2       19               -378.9908592220               -378.9908578359
           2       20                -38.5466357706                -38.5466352863
           2       21                  0.0413252873                  0.0412613130
           2       22               -221.3839670368               -221.3839666429
           2       23                 -3.9126042967                 -3.9126288276
           2       24                  6.5094483737                  6.5089545949
           2       25                 23.0578719249                 23.0578720035
           2       26                 49.8804731706                 49.8804731458
           3       27                 -6.3466384203                 -6.3467402336
           3       28                 13.9242983524                 13.9240039182
           3       29                 42.6164017638                 42.6068629502
           3       30                 44.6397076601                 44.5858497433 ***
           3       31                 28.9847971103                 28.9847971340
           3       32                 59.7390576985                 59.7391280920
           3       33                 60.2962768518                 60.2962765952
 * Note: Onsite integrals marked "***" above are less accurate than
 * onsite_accuracy_threshold =    0.03000 eV. Usually, this is harmless.
 * When in doubt, tighten the "radial" and/or "radial_multiplier" flags to check.

  Preparing densities etc. for the partition functions (integrals / Hartree potential).

  Preparations completed.
  max(cpu_time)          :      0.308 s.
  Wall clock time (cpu1) :      0.308 s.
------------------------------------------------------------

  Initializing index lists of integration centers etc. from given atomic structure:
  | Number of centers in hartree potential         :       150
  | Number of centers in hartree multipole         :       150
  | Number of centers in electron density summation:       150
  | Number of centers in basis integrals           :       150
  | Number of centers in integrals                 :       150
  | Number of centers in hamiltonian               :       150

------------------------------------------------------------
          Begin self-consistency loop: Initialization.

          Date     :  20221010, Time     :  115017.119
------------------------------------------------------------
  * Using 16 tasks for Scalapack Eigenvalue solver.
  Detailed listing of tasks and assigned k-points:
  (for non-periodic systems, the "k-point" denotes an internal label only)
   Task     0 k-point     1 on adag009
   Task     1 k-point     1 on adag009
   Task     2 k-point     1 on adag009
   Task     3 k-point     1 on adag009
   Task     4 k-point     1 on adag011
   Task     5 k-point     1 on adag011
   Task     6 k-point     1 on adag011
   Task     7 k-point     1 on adag011
   Task     8 k-point     1 on adag012
   Task     9 k-point     1 on adag012
   Task    10 k-point     1 on adag012
   Task    11 k-point     1 on adag012
   Task    12 k-point     1 on adag013
   Task    13 k-point     1 on adag013
   Task    14 k-point     1 on adag013
   Task    15 k-point     1 on adag013
  Tasks:    16 split into      4 X      4 BLACS grid
  Calculating block size based on n_basis =         5212  max_nprow =            4  max_npcol =            4
  ScaLAPACK block size set to:           16
  Allocating       13.133 MB for ovlp
  Allocating       13.133 MB for ham
  Allocating       13.133 MB for eigenvec
  Required Scalapack workspace - INTEGER:            1  REAL:             1
  Partitioning the integration grid into batches with parallel hashing+maxmin method.
  | Number of batches:    30895
  | Maximal batch size:     200
  | Minimal batch size:      49
  | Average batch size:     105.885
  | Standard deviation of batch sizes:      29.795

  Integration load balanced across    16 MPI tasks.
  Work distribution over tasks is as follows:
  Task     0 has     204497 integration points.
  Task     1 has     204525 integration points.
  Task     2 has     204411 integration points.
  Task     3 has     204496 integration points.
  Task     4 has     204524 integration points.
  Task     5 has     204499 integration points.
  Task     6 has     204396 integration points.
  Task     7 has     204385 integration points.
  Task     8 has     204395 integration points.
  Task     9 has     204415 integration points.
  Task    10 has     204531 integration points.
  Task    11 has     204502 integration points.
  Task    12 has     204416 integration points.
  Task    13 has     204409 integration points.
  Task    14 has     204438 integration points.
  Task    15 has     204481 integration points.
  Initializing partition tables, free-atom densities, potentials, etc. across the integration grid (initialize_grid_storage).
  | initialize_grid_storage: Actual outermost partition radius vs. multipole_radius_free
  | (-- VB: in principle, multipole_radius_free should be larger, hence this output)
  | Species        1: Confinement radius =              7.000000000000000 AA, multipole_radius_free =              7.048535234309517 AA.
  | Species        1: outer_partition_radius set to              7.048535234309517 AA .
  | Species        2: Confinement radius =              7.000000000000000 AA, multipole_radius_free =              7.053420401129707 AA.
  | Species        2: outer_partition_radius set to              7.053420401129707 AA .
  | Species        3: Confinement radius =              6.000000000000000 AA, multipole_radius_free =              6.071692442739658 AA.
  | Species        3: outer_partition_radius set to              6.071692442739658 AA .
  | The sparse table of interatomic distances needs        248.79 kbyte instead of       180.00 kbyte of memory.
  | Using the partition_type stratmann_smoother will reduce your memory usage.
  | Net number of integration points:  3271320
  | of which are non-zero points    :  2661291
  Renormalizing the initial density to the exact electron count on the 3D integration grid.
  | Initial density: Formal number of electrons (from input files) :    2732.0000000000
  | Integrated number of electrons on 3D grid     :    2731.9997621417
  | Charge integration error                      :      -0.0002378583
  | Normalization factor for density and gradient :       1.0000000871
  Obtaining max. number of non-zero basis functions in each batch (get_n_compute_maxes).
  | Maximal number of non-zero basis functions:     1292 in task     0
  | Maximal number of non-zero basis functions:     1298 in task     1
  | Maximal number of non-zero basis functions:     1309 in task     2
  | Maximal number of non-zero basis functions:     1308 in task     3
  | Maximal number of non-zero basis functions:     1313 in task     4
  | Maximal number of non-zero basis functions:     1307 in task     5
  | Maximal number of non-zero basis functions:     1298 in task     6
  | Maximal number of non-zero basis functions:     1297 in task     7
  | Maximal number of non-zero basis functions:     1304 in task     8
  | Maximal number of non-zero basis functions:     1328 in task     9
  | Maximal number of non-zero basis functions:     1325 in task    10
  | Maximal number of non-zero basis functions:     1308 in task    11
  | Maximal number of non-zero basis functions:     1296 in task    12
  | Maximal number of non-zero basis functions:     1304 in task    13
  | Maximal number of non-zero basis functions:     1288 in task    14
  | Maximal number of non-zero basis functions:     1340 in task    15
  Selecting the method for density update.
  Density matrix based charge density update selected.
  Scalapack and density-matrix based density update requested:
  Switching to packed matrix format "index" by default.
  Hamiltonian matrix size:
  | Size of matrix non-packed:              13585078
  | Size of matrix packed:         6810881
  Allocating      207.252 MB for KS_eigenvector
  Integrating Hamiltonian matrix: batch-based integration.
  Time summed over all CPUs for integration: real work      144.419 s, elapsed      151.235 s
  Integrating overlap matrix.
  Time summed over all CPUs for integration: real work      103.476 s, elapsed      108.953 s
  Decreasing sparse matrix size:
  | Tolerance:  0.1000E-12
  Hamiltonian matrix
  | Array has  6358912 nonzero elements out of  6810881 elements
  | Sparsity factor is 0.066
  Overlap matrix
  | Array has  6150421 nonzero elements out of  6810881 elements
  | Sparsity factor is 0.097
  New size of hamiltonian matrix:     6359274
  Deallocating overlap matrix.

  Updating Kohn-Sham eigenvalues and eigenvectors using ELSI and the ELPA eigensolver.
  Overlap matrix is not singular
  | Lowest and highest eigenvalues :  0.1159E-03,  0.9960E+01
  Finished singularity check of overlap matrix
  | Time :     1.172 s
  Starting ELPA eigensolver
  Finished Cholesky decomposition
  | Time :     0.301 s
  Finished transformation to standard eigenproblem
  | Time :     0.290 s
  Finished solving standard eigenproblem
  | Time :     3.421 s
  Finished back-transformation of eigenvectors
  | Time :     0.218 s

  Obtaining occupation numbers and electronic chemical potential using ELSI.
  | Note that, for insulating systems, the printed 'chemical potential' value is not uniquely defined.
  | It can be anywhere in the energy gap, as long as it correctly separates occupied and unoccupied states.
  | In systems with a gap, the physically relevant chemical potential is the VBM or HOMO.

  | Chemical potential (Fermi level):    -6.02748407 eV
  Writing Kohn-Sham eigenvalues.

  State    Occupation    Eigenvalue [Ha]    Eigenvalue [eV]
      1       2.00000        -744.309565       -20253.69377
      2       2.00000        -744.309564       -20253.69374
      3       2.00000        -744.309542       -20253.69314
      4       2.00000        -744.309540       -20253.69309
      5       2.00000        -744.309520       -20253.69253
      6       2.00000        -744.309519       -20253.69251
      7       2.00000        -744.308140       -20253.65499
      8       2.00000        -744.308129       -20253.65469
      9       2.00000        -744.308120       -20253.65443
     10       2.00000        -744.308116       -20253.65433
     11       2.00000        -744.308095       -20253.65376
     12       2.00000        -744.308087       -20253.65354
     13       2.00000        -744.307788       -20253.64541
     14       2.00000        -744.307662       -20253.64197
     15       2.00000        -744.307662       -20253.64197
     16       2.00000        -744.306996       -20253.62387
     17       2.00000        -744.306995       -20253.62383
     18       2.00000        -744.306994       -20253.62379
     19       2.00000        -744.306993       -20253.62376
     20       2.00000        -744.306937       -20253.62224
     21       2.00000        -744.306911       -20253.62153
     22       2.00000        -744.306909       -20253.62150
     23       2.00000        -744.306638       -20253.61412
     24       2.00000        -744.306638       -20253.61410
     25       2.00000        -744.306448       -20253.60895
     26       2.00000        -744.306447       -20253.60892
     27       2.00000        -744.306016       -20253.59719
     28       2.00000        -744.306016       -20253.59718
     29       2.00000        -744.305642       -20253.58701
     30       2.00000        -744.305642       -20253.58700
     31       2.00000        -744.305581       -20253.58534
     32       2.00000        -744.304922       -20253.56743
     33       2.00000        -744.304921       -20253.56738
     34       2.00000        -744.304856       -20253.56562
     35       2.00000        -744.304855       -20253.56560
     36       2.00000        -744.304827       -20253.56482
     37       2.00000        -744.304824       -20253.56474
     38       2.00000        -103.198964        -2808.18668
     39       2.00000        -103.198962        -2808.18664
     40       2.00000        -103.198940        -2808.18604
     41       2.00000        -103.198938        -2808.18599
     42       2.00000        -103.198918        -2808.18543
     43       2.00000        -103.198917        -2808.18540
     44       2.00000        -103.197527        -2808.14758
     45       2.00000        -103.197516        -2808.14728
     46       2.00000        -103.197506        -2808.14702
     47       2.00000        -103.197502        -2808.14692
     48       2.00000        -103.197482        -2808.14635
     49       2.00000        -103.197473        -2808.14613
     50       2.00000        -103.197164        -2808.13771
     51       2.00000        -103.197036        -2808.13422
     52       2.00000        -103.197035        -2808.13421
     53       2.00000        -103.196362        -2808.11589
     54       2.00000        -103.196361        -2808.11586
     55       2.00000        -103.196359        -2808.11581
     56       2.00000        -103.196358        -2808.11578
     57       2.00000        -103.196305        -2808.11434
     58       2.00000        -103.196275        -2808.11351
     59       2.00000        -103.196273        -2808.11347
     60       2.00000        -103.196005        -2808.10616
     61       2.00000        -103.196004        -2808.10614
     62       2.00000        -103.195818        -2808.10108
     63       2.00000        -103.195817        -2808.10105
     64       2.00000        -103.195381        -2808.08920
     65       2.00000        -103.195381        -2808.08918
     66       2.00000        -103.194997        -2808.07874
     67       2.00000        -103.194997        -2808.07873
     68       2.00000        -103.194935        -2808.07705
     69       2.00000        -103.194272        -2808.05902
     70       2.00000        -103.194271        -2808.05898
     71       2.00000        -103.194205        -2808.05719
     72       2.00000        -103.194204        -2808.05717
     73       2.00000        -103.194176        -2808.05640
     74       2.00000        -103.194173        -2808.05632
     75       2.00000         -92.305122        -2511.75017
     76       2.00000         -92.305121        -2511.75013
     77       2.00000         -92.305105        -2511.74971
     78       2.00000         -92.305104        -2511.74967
     79       2.00000         -92.305099        -2511.74954
     80       2.00000         -92.305097        -2511.74948
     81       2.00000         -92.305097        -2511.74948
     82       2.00000         -92.305096        -2511.74945
     83       2.00000         -92.305082        -2511.74908
     84       2.00000         -92.305080        -2511.74902
     85       2.00000         -92.305076        -2511.74892
     86       2.00000         -92.305075        -2511.74889
     87       2.00000         -92.305074        -2511.74885
     88       2.00000         -92.305072        -2511.74879
     89       2.00000         -92.305059        -2511.74846
     90       2.00000         -92.305059        -2511.74844
     91       2.00000         -92.305051        -2511.74824
     92       2.00000         -92.305050        -2511.74821
     93       2.00000         -92.303691        -2511.71121
     94       2.00000         -92.303680        -2511.71092
     95       2.00000         -92.303670        -2511.71066
     96       2.00000         -92.303668        -2511.71061
     97       2.00000         -92.303666        -2511.71056
     98       2.00000         -92.303662        -2511.71045
     99       2.00000         -92.303658        -2511.71032
    100       2.00000         -92.303652        -2511.71015
    101       2.00000         -92.303648        -2511.71006
    102       2.00000         -92.303645        -2511.70999
    103       2.00000         -92.303644        -2511.70996
    104       2.00000         -92.303642        -2511.70988
    105       2.00000         -92.303638        -2511.70978
    106       2.00000         -92.303637        -2511.70976
    107       2.00000         -92.303623        -2511.70939
    108       2.00000         -92.303617        -2511.70922
    109       2.00000         -92.303615        -2511.70916
    110       2.00000         -92.303609        -2511.70900
    111       2.00000         -92.303327        -2511.70132
    112       2.00000         -92.303316        -2511.70103
    113       2.00000         -92.303297        -2511.70051
    114       2.00000         -92.303199        -2511.69783
    115       2.00000         -92.303198        -2511.69782
    116       2.00000         -92.303190        -2511.69758
    117       2.00000         -92.303189        -2511.69758
    118       2.00000         -92.303169        -2511.69701
    119       2.00000         -92.303168        -2511.69700
    120       2.00000         -92.302525        -2511.67949
    121       2.00000         -92.302524        -2511.67946
    122       2.00000         -92.302522        -2511.67941
    123       2.00000         -92.302521        -2511.67938
    124       2.00000         -92.302520        -2511.67937
    125       2.00000         -92.302519        -2511.67934
    126       2.00000         -92.302518        -2511.67930
    127       2.00000         -92.302517        -2511.67928
    128       2.00000         -92.302496        -2511.67872
    129       2.00000         -92.302495        -2511.67868
    130       2.00000         -92.302493        -2511.67863
    131       2.00000         -92.302492        -2511.67860
    132       2.00000         -92.302467        -2511.67792
    133       2.00000         -92.302462        -2511.67779
    134       2.00000         -92.302440        -2511.67718
    135       2.00000         -92.302437        -2511.67711
    136       2.00000         -92.302436        -2511.67708
    137       2.00000         -92.302434        -2511.67703
    138       2.00000         -92.302433        -2511.67700
    139       2.00000         -92.302409        -2511.67633
    140       2.00000         -92.302407        -2511.67630
    141       2.00000         -92.302167        -2511.66976
    142       2.00000         -92.302166        -2511.66974
    143       2.00000         -92.302161        -2511.66960
    144       2.00000         -92.302161        -2511.66958
    145       2.00000         -92.302140        -2511.66902
    146       2.00000         -92.302139        -2511.66901
    147       2.00000         -92.301975        -2511.66453
    148       2.00000         -92.301975        -2511.66453
    149       2.00000         -92.301974        -2511.66451
    150       2.00000         -92.301974        -2511.66450
    151       2.00000         -92.301956        -2511.66402
    152       2.00000         -92.301955        -2511.66399
    153       2.00000         -92.301541        -2511.65271
    154       2.00000         -92.301540        -2511.65270
    155       2.00000         -92.301538        -2511.65263
    156       2.00000         -92.301537        -2511.65262
    157       2.00000         -92.301521        -2511.65217
    158       2.00000         -92.301520        -2511.65216
    159       2.00000         -92.301168        -2511.64256
    160       2.00000         -92.301167        -2511.64255
    161       2.00000         -92.301164        -2511.64247
    162       2.00000         -92.301164        -2511.64246
    163       2.00000         -92.301121        -2511.64130
    164       2.00000         -92.301121        -2511.64129
    165       2.00000         -92.301106        -2511.64088
    166       2.00000         -92.301102        -2511.64077
    167       2.00000         -92.301060        -2511.63963
    168       2.00000         -92.300446        -2511.62292
    169       2.00000         -92.300444        -2511.62287
    170       2.00000         -92.300427        -2511.62240
    171       2.00000         -92.300425        -2511.62235
    172       2.00000         -92.300410        -2511.62195
    173       2.00000         -92.300409        -2511.62191
    174       2.00000         -92.300379        -2511.62110
    175       2.00000         -92.300378        -2511.62107
    176       2.00000         -92.300359        -2511.62057
    177       2.00000         -92.300359        -2511.62055
    178       2.00000         -92.300349        -2511.62030
    179       2.00000         -92.300346        -2511.62022
    180       2.00000         -92.300343        -2511.62012
    181       2.00000         -92.300342        -2511.62010
    182       2.00000         -92.300331        -2511.61978
    183       2.00000         -92.300328        -2511.61970
    184       2.00000         -92.300314        -2511.61933
    185       2.00000         -92.300311        -2511.61925
    186       2.00000         -88.398331        -2405.44098
    187       2.00000         -88.396958        -2405.40362
    188       2.00000         -88.396946        -2405.40329
    189       2.00000         -88.396835        -2405.40027
    190       2.00000         -88.396830        -2405.40013
    191       2.00000         -88.396758        -2405.39817
[...]
  | Hartree multipole sum: apparent total charge =  -0.235034E-03
  Summing up the Hartree potential.
  Time summed over all CPUs for potential: real work      113.768 s, elapsed      117.381 s
  | RMS delta_rho error from multipole expansion :   0.184629E+00

  Integrating first-order-Hamiltonian matrix: batch-based integration.
  Time summed over all CPUs for integration: real work      951.317 s, elapsed      996.600 s
  End CPSCF iteration #    29                  :  max(cpu_time)    wall_clock(cpu1)
  | Time for this iteration                     :      127.377 s         127.398 s
  | first_order_density                         :       36.715 s          36.716 s
  | first_order_potential                       :       21.624 s          21.627 s
  | first_order_H                               :       62.620 s          62.630 s
  | first_order_DM                              :        2.606 s           2.607 s
  | Solution of Sternheimer eqns.               :        2.371 s           2.371 s
------------------------------------------------------------

-------------------------------------------------------------
          Begin CP-self-consistency iteration #   30

  Date     :  20221010, Time     :  130921.229
------------------------------------------------------------

  CPSCF convergence accuracy:
  | Change of first_order_density_matrix     :  0.2829E-02
  Integrating first_order_rho: batch-based integration.
  Time summed over all CPUs for integration: real work      560.603 s, elapsed      592.954 s

  Evaluating partitioned Hartree potential by multipole expansion.
  | Analytical far-field extrapolation by fixed multipoles:
  | Hartree multipole sum: apparent total charge =  -0.126265E-05
  Summing up the Hartree potential.
  Time summed over all CPUs for potential: real work      115.192 s, elapsed      118.867 s
  | RMS delta_rho error from multipole expansion :   0.360766E+00


  Evaluating partitioned Hartree potential by multipole expansion.
  | Analytical far-field extrapolation by fixed multipoles:
  | Hartree multipole sum: apparent total charge =   0.136764E-05
  Summing up the Hartree potential.
  Time summed over all CPUs for potential: real work      115.119 s, elapsed      118.765 s
  | RMS delta_rho error from multipole expansion :   0.359691E+00


  Evaluating partitioned Hartree potential by multipole expansion.
  | Analytical far-field extrapolation by fixed multipoles:
  | Hartree multipole sum: apparent total charge =  -0.235033E-03
  Summing up the Hartree potential.
  Time summed over all CPUs for potential: real work      113.762 s, elapsed      117.386 s
  | RMS delta_rho error from multipole expansion :   0.184629E+00

  Integrating first-order-Hamiltonian matrix: batch-based integration.
  Time summed over all CPUs for integration: real work      951.413 s, elapsed      996.810 s
  End CPSCF iteration #    30                  :  max(cpu_time)    wall_clock(cpu1)
  | Time for this iteration                     :      128.381 s         128.402 s
  | first_order_density                         :       37.068 s          37.069 s
  | first_order_potential                       :       22.266 s          22.268 s
  | first_order_H                               :       62.634 s          62.644 s
  | first_order_DM                              :        2.604 s           2.605 s
  | Solution of Sternheimer eqns.               :        2.369 s           2.370 s
------------------------------------------------------------

-------------------------------------------------------------
          Begin CP-self-consistency iteration #   31

  Date     :  20221010, Time     :  131129.631
------------------------------------------------------------

  CPSCF convergence accuracy:
  | Change of first_order_density_matrix     :  0.3001E-02
  Integrating first_order_rho: batch-based integration.
  Time summed over all CPUs for integration: real work      543.387 s, elapsed      570.407 s

  Evaluating partitioned Hartree potential by multipole expansion.
  | Analytical far-field extrapolation by fixed multipoles:
  | Hartree multipole sum: apparent total charge =  -0.126264E-05
  Summing up the Hartree potential.
  Time summed over all CPUs for potential: real work      115.201 s, elapsed      118.916 s
  | RMS delta_rho error from multipole expansion :   0.360767E+00


  Evaluating partitioned Hartree potential by multipole expansion.
  | Analytical far-field extrapolation by fixed multipoles:
  | Hartree multipole sum: apparent total charge =   0.136762E-05
  Summing up the Hartree potential.
  Time summed over all CPUs for potential: real work      115.119 s, elapsed      118.863 s
  | RMS delta_rho error from multipole expansion :   0.359693E+00


  Evaluating partitioned Hartree potential by multipole expansion.
  | Analytical far-field extrapolation by fixed multipoles:
  | Hartree multipole sum: apparent total charge =  -0.235033E-03
  Summing up the Hartree potential.
  Time summed over all CPUs for potential: real work      113.761 s, elapsed      117.443 s
  | RMS delta_rho error from multipole expansion :   0.184630E+00

  Integrating first-order-Hamiltonian matrix: batch-based integration.
  Time summed over all CPUs for integration: real work      951.769 s, elapsed      996.690 s
  End CPSCF iteration #    31                  :  max(cpu_time)    wall_clock(cpu1)
  | Time for this iteration                     :      126.979 s         127.000 s
  | first_order_density                         :       35.659 s          35.660 s
  | first_order_potential                       :       22.277 s          22.281 s
  | first_order_H                               :       62.626 s          62.635 s
  | first_order_DM                              :        2.606 s           2.606 s
  | Solution of Sternheimer eqns.               :        2.371 s           2.372 s
------------------------------------------------------------

-------------------------------------------------------------
          Begin CP-self-consistency iteration #   32

  Date     :  20221010, Time     :  131336.631
------------------------------------------------------------

  CPSCF convergence accuracy:
  | Change of first_order_density_matrix     :  0.2535E-02
  Integrating first_order_rho: batch-based integration.
  Time summed over all CPUs for integration: real work      561.605 s, elapsed      593.046 s

  Evaluating partitioned Hartree potential by multipole expansion.
  | Analytical far-field extrapolation by fixed multipoles:
  | Hartree multipole sum: apparent total charge =  -0.126269E-05
  Summing up the Hartree potential.
  Time summed over all CPUs for potential: real work      115.194 s, elapsed      118.862 s
  | RMS delta_rho error from multipole expansion :   0.360768E+00


  Evaluating partitioned Hartree potential by multipole expansion.
  | Analytical far-field extrapolation by fixed multipoles:
  | Hartree multipole sum: apparent total charge =   0.136765E-05
  Summing up the Hartree potential.
  Time summed over all CPUs for potential: real work      115.114 s, elapsed      118.776 s
  | RMS delta_rho error from multipole expansion :   0.359694E+00


  Evaluating partitioned Hartree potential by multipole expansion.
  | Analytical far-field extrapolation by fixed multipoles:
  | Hartree multipole sum: apparent total charge =  -0.235032E-03
  Summing up the Hartree potential.
  Time summed over all CPUs for potential: real work      113.760 s, elapsed      117.375 s
  | RMS delta_rho error from multipole expansion :   0.184631E+00

  Integrating first-order-Hamiltonian matrix: batch-based integration.
  Time summed over all CPUs for integration: real work      951.978 s, elapsed      996.884 s
  End CPSCF iteration #    32                  :  max(cpu_time)    wall_clock(cpu1)
  | Time for this iteration                     :      128.449 s         128.469 s
  | first_order_density                         :       37.086 s          37.086 s
  | first_order_potential                       :       22.266 s          22.268 s
  | first_order_H                               :       62.642 s          62.652 s
  | first_order_DM                              :        2.609 s           2.609 s
  | Solution of Sternheimer eqns.               :        2.369 s           2.369 s
------------------------------------------------------------

-------------------------------------------------------------
          Begin CP-self-consistency iteration #   33

  Date     :  20221010, Time     :  131545.100
------------------------------------------------------------

  CPSCF convergence accuracy:
  | Change of first_order_density_matrix     :  0.2545E-02
  Integrating first_order_rho: batch-based integration.
  Time summed over all CPUs for integration: real work      543.951 s, elapsed      569.743 s

  Evaluating partitioned Hartree potential by multipole expansion.
  | Analytical far-field extrapolation by fixed multipoles:
  | Hartree multipole sum: apparent total charge =  -0.126273E-05
  Summing up the Hartree potential.
  Time summed over all CPUs for potential: real work      115.199 s, elapsed      118.875 s
  | RMS delta_rho error from multipole expansion :   0.360768E+00


  Evaluating partitioned Hartree potential by multipole expansion.
  | Analytical far-field extrapolation by fixed multipoles:
  | Hartree multipole sum: apparent total charge =   0.136768E-05
  Summing up the Hartree potential.
  Time summed over all CPUs for potential: real work      115.168 s, elapsed      118.776 s
  | RMS delta_rho error from multipole expansion :   0.359693E+00


  Evaluating partitioned Hartree potential by multipole expansion.
  | Analytical far-field extrapolation by fixed multipoles:
  | Hartree multipole sum: apparent total charge =  -0.235031E-03
  Summing up the Hartree potential.
  Time summed over all CPUs for potential: real work      113.770 s, elapsed      117.393 s
  | RMS delta_rho error from multipole expansion :   0.184631E+00

  Integrating first-order-Hamiltonian matrix: batch-based integration.
  Time summed over all CPUs for integration: real work      951.995 s, elapsed      996.820 s
  End CPSCF iteration #    33                  :  max(cpu_time)    wall_clock(cpu1)
  | Time for this iteration                     :      126.956 s         126.976 s
  | first_order_density                         :       35.617 s          35.619 s
  | first_order_potential                       :       22.267 s          22.269 s
  | first_order_H                               :       62.638 s          62.648 s
  | first_order_DM                              :        2.609 s           2.609 s
  | Solution of Sternheimer eqns.               :        2.379 s           2.380 s
------------------------------------------------------------

-------------------------------------------------------------
          Begin CP-self-consistency iteration #   34

  Date     :  20221010, Time     :  131752.076
------------------------------------------------------------

  CP-self-consistency cycle converged in   33 iterations

  End CPSCF iteration #    34                  :  max(cpu_time)    wall_clock(cpu1)
  | Time for this iteration                     :        2.945 s           2.946 s
  | first_order_density                         :       35.617 s          35.619 s
  | first_order_potential                       :       22.267 s          22.269 s
  | first_order_H                               :       62.638 s          62.648 s
  | first_order_DM                              :        2.611 s           2.611 s
  | Solution of Sternheimer eqns.               :        2.379 s           2.380 s
------------------------------------------------------------
  Summing up the Hartree potential.
  Time summed over all CPUs for integrate_polarizability: real work        0.092 s, elapsed        0.253 s

DFPT for polarizability:--->
   4846.36296686554        5.35784423920926       -346.264804209917
   5.35785179612023        4853.16811056102       -66.2435015730390
   14.0377077789225       -7.90851610447698        1641.80232126304
The mean polarizability is 3780.444466
DFPT polarizability (Bohr^3)        xx        yy        zz        xy        xz        yz
  | Polarizability:--->                      4846.362966866           4853.168110561           1641.802321263              5.357844239           -346.264804210            -66.243501573

                                               :  max(cpu_time)    wall_clock(cpu1)
  | Time for polarizability calculation         :        0.016 s           0.016 s
===========================================================================

------------------------------------------------------------------------------
  Final output of selected total energy values:

  The following output summarizes some interesting total energy values
  at the end of a run (AFTER all relaxation, molecular dynamics, etc.).

  | Total energy of the DFT / Hartree-Fock s.c.f. calculation      :       -4882225.058079144 eV
  | Final zero-broadening corrected energy (caution - metals only) :       -4882225.058079144 eV
  | For reference only, the value of 1 Hartree used in FHI-aims is :             27.211384500 eV

  Before relying on these values, please be sure to understand exactly which
  total energy value is referred to by a given number. Different objects may
  all carry the same name 'total energy'. Definitions:

  Total energy of the DFT / Hartree-Fock s.c.f. calculation:
  | Note that this energy does not include ANY quantities calculated after the
  | s.c.f. cycle, in particular not ANY RPA, MP2, etc. many-body perturbation terms.

  Final zero-broadening corrected energy:
  | For metallic systems only, a broadening of the occupation numbers at the Fermi
  | level can be extrapolated back to zero broadening by an electron-gas inspired
  | formula. For all systems that are not real metals, this value can be
  | meaningless and should be avoided.

------------------------------------------------------------------------------
  Methods described in the following list of references were used in this FHI-aims run.
  If you publish the results, please make sure to cite these reference if they apply.
  FHI-aims is an academic code, and for our developers (often, Ph.D. students
  and postdocs), scientific credit in the community is essential.
  Thank you for helping us!

  For any use of FHI-aims, please cite:

    Volker Blum, Ralf Gehrke, Felix Hanke, Paula Havu, Ville Havu,
    Xinguo Ren, Karsten Reuter, and Matthias Scheffler
    'Ab initio molecular simulations with numeric atom-centered orbitals'
    Computer Physics Communications 180, 2175-2196 (2009)
    http://doi.org/10.1016/j.cpc.2009.06.022


  The DFPT (perturbation by an electric field) part of the code was used.
  Here is the corresponding reference:

    Honghui Shang, Nathaniel Raimbault, Mariana Rossi,
    Christian Carbogno, Patrick Rinke and Matthias Scheffler,
    'All-Electron, Real-Space Perturbation Theory for Homogeneous
    Electric Fields: Theory, Implementation, and Application within dft'
    New Journal of Physics, 20(7):073040, 2018


  The ELSI infrastructure was used in your run to solve the Kohn-Sham electronic structure.
  Please check out http://elsi-interchange.org to learn more.
  If scalability is important for your project, please acknowledge ELSI by citing:

    V. W-z. Yu, F. Corsetti, A. Garcia, W. P. Huhn, M. Jacquelin, W. Jia,
    B. Lange, L. Lin, J. Lu, W. Mi, A. Seifitokaldani, A. Vazquez-Mayagoitia,
    C. Yang, H. Yang, and V. Blum
    'ELSI: A unified software interface for Kohn-Sham electronic structure solvers'
    Computer Physics Communications 222, 267-285 (2018).
    http://doi.org/10.1016/j.cpc.2017.09.007


  For the real-space grid partitioning and parallelization used in this calculation, please cite:

    Ville Havu, Volker Blum, Paula Havu, and Matthias Scheffler,
    'Efficient O(N) integration for all-electron electronic structure calculation'
    'using numerically tabulated basis functions'
    Journal of Computational Physics 228, 8367-8379 (2009).
    http://doi.org/10.1016/j.jcp.2009.08.008

  Of course, there are many other important community references, e.g., those cited in the
  above references. Our list is limited to references that describe implementations in the
  FHI-aims code. The reason is purely practical (length of this list) - please credit others as well.

------------------------------------------------------------
          Leaving FHI-aims.
          Date     :  20221010, Time     :  131755.077

          Computational steps:
          | Number of self-consistency cycles          :           66
          | Number of SCF (re)initializations          :            1
          | Number of coupled perturbed self-consistency cycles          :            0
          | Number of CPSCF (re)initializations          :            0

          Detailed time accounting                     :  max(cpu_time)    wall_clock(cpu1)
          | Total time                                  :     5260.425 s        5261.509 s
          | Preparation time                            :        0.308 s           0.308 s
          | Boundary condition initalization            :        0.000 s           0.000 s
          | Grid partitioning                           :        2.368 s           2.369 s
          | Preloading free-atom quantities on grid     :        5.345 s           5.349 s
          | Free-atom superposition energy              :        0.627 s           0.628 s
          | Total time for integrations                 :      316.537 s         316.597 s
          | Transforming ovlp_3fn to ovlp_3KS           :        0.000 s           0.000 s
          | Total time for solution of K.-S. equations  :      115.726 s         115.755 s
          | Total time for density update               :      326.539 s         326.599 s
          | Total time for mixing                       :        0.416 s           0.416 s
          | Total time for Hartree multipole update     :        0.781 s           0.779 s
          | Total time for Hartree multipole sum        :      204.882 s         204.906 s
          | Total time for total energy evaluation      :        0.025 s           0.023 s
          | Total time for scaled ZORA corrections      :        0.000 s           0.000 s
          | Total time first_order_DM                   :       88.421 s          88.439 s
          | Total time first_order_density              :     1218.170 s        1218.194 s
          | Total time first_order_potential            :      730.537 s         730.629 s
          | Total time first_order_H                    :     2056.889 s        2057.217 s
          | Total time solving of Sternheimer equations :       78.213 s          78.229 s
          | Total time for polarizability               :        0.016 s           0.016 s

          Partial memory accounting:
          | Residual value for overall tracked memory usage across tasks:     0.000000 MB (should be 0.000000 MB)
          | Peak values for overall tracked memory usage:
          |   Minimum:     1010.455 MB (on task 10 after allocating DFPT_pulay_mixing::pulay_mix::alphas)
          |   Maximum:     1028.602 MB (on task  0 after allocating DFPT_pulay_mixing::pulay_mix::alphas)
          |   Average:     1018.367 MB
          | Largest tracked array allocation:
          |   Minimum:      269.104 MB (DFPT_pulay_mixing::initialize_pulay_mixing::X_in_diffs on task 10)
          |   Maximum:      275.789 MB (DFPT_pulay_mixing::initialize_pulay_mixing::X_in_diffs on task  0)
          |   Average:      272.018 MB
          Note:  These values currently only include a subset of arrays which are explicitly tracked.
          The "true" memory usage will be greater.

          Have a nice day.
------------------------------------------------------------
