------------------------------------------------------------
          Invoking FHI-aims ...

          When using FHI-aims, please cite the following reference:

            Volker Blum, Ralf Gehrke, Felix Hanke, Paula Havu,
            Ville Havu, Xinguo Ren, Karsten Reuter, and Matthias Scheffler,
            'Ab Initio Molecular Simulations with Numeric Atom-Centered Orbitals',
            Computer Physics Communications 180, 2175-2196 (2009)

          In addition, many other developments in FHI-aims are likely important for
          your particular application. A partial list of references is given at the end of
          this file. Thank you for giving credit to the authors of these developments.

          For any questions about FHI-aims, please visit our slack channel at

            https://fhi-aims.slack.com

          and our main development and support site at

            https://aims-git.rz-berlin.mpg.de .

          The latter site, in particular, has a wiki to collect information, as well
          as an issue tracker to log discussions, suggest improvements, and report issues
          or bugs. https://aims-git.rz-berlin.mpg.de is also the main development site
          of the project and all new and updated code versions can be obtained there.
          Please send an email to aims-coordinators@fhi-berlin.mpg.de and we will add
          you to these sites. They are for you and everyone is welcome there.

------------------------------------------------------------



  Date     :  20220425, Time     :  041842.278
  Time zero on CPU 1             :   0.427723000000000E+00  s.
  Internal wall clock time zero  :           420092322.278  s.

  FHI-aims created a unique identifier for this run for later identification
  aims_uuid : 31342063-576E-44AB-AB14-B23075192D03

  Build configuration of the current instance of FHI-aims
  -------------------------------------------------------
  FHI-aims version      : 220405
  Commit number         : dec698196
  CMake host system     : Linux-5.3.18-24.99-default
  CMake version         : 3.22.0
  Fortran compiler      : /mpcdf/soft/SLE_15/packages/x86_64/intel_oneapi/2021.4/mpi/2021.4.0/bin/mpiifort (Intel) version 2021.4.0.20210910
  Fortran compiler flags: -O3 -ip -fp-model precise
  C compiler            : /mpcdf/soft/SLE_15/packages/x86_64/intel/2021.4.0/bin/icc (Intel) version 2021.4.0.20210910
  C compiler flags      : -O3 -ip -fp-model precise
  C++ compiler          : /mpcdf/soft/SLE_15/packages/x86_64/intel/2021.4.0/bin/icpc (Intel) version 2021.4.0.20210910
  C++ compiler flags    : -O3 -ip -fp-model precise
  Using MPI
  Using ScaLAPACK
  Using LibXC
  Using i-PI
  Using RLSY
  Linking against: /mpcdf/soft/SLE_15/packages/x86_64/intel_oneapi/2021.4/mkl/latest/lib/intel64/libmkl_intel_lp64.so
                   /mpcdf/soft/SLE_15/packages/x86_64/intel_oneapi/2021.4/mkl/latest/lib/intel64/libmkl_sequential.so
                   /mpcdf/soft/SLE_15/packages/x86_64/intel_oneapi/2021.4/mkl/latest/lib/intel64/libmkl_core.so
                   /mpcdf/soft/SLE_15/packages/x86_64/intel_oneapi/2021.4/mkl/latest/lib/intel64/libmkl_blacs_intelmpi_lp64.so
                   /mpcdf/soft/SLE_15/packages/x86_64/intel_oneapi/2021.4/mkl/latest/lib/intel64/libmkl_scalapack_lp64.so

  Using      432 parallel tasks.
  Task        0 on host ravg1039 reporting.
  Task        1 on host ravg1039 reporting.
  Task        2 on host ravg1039 reporting.
  Task        3 on host ravg1039 reporting.
  Task        4 on host ravg1039 reporting.
  Task        5 on host ravg1039 reporting.
  Task        6 on host ravg1039 reporting.
  Task        7 on host ravg1039 reporting.
  Task        8 on host ravg1039 reporting.
  Task        9 on host ravg1039 reporting.
  Task       10 on host ravg1039 reporting.
  Task       11 on host ravg1039 reporting.
  Task       12 on host ravg1039 reporting.
  Task       13 on host ravg1039 reporting.
  Task       14 on host ravg1039 reporting.
  Task       15 on host ravg1039 reporting.
  Task       16 on host ravg1039 reporting.
  Task       17 on host ravg1039 reporting.
  Task       18 on host ravg1039 reporting.
  Task       19 on host ravg1039 reporting.
  Task       20 on host ravg1039 reporting.
  Task       21 on host ravg1039 reporting.
  Task       22 on host ravg1039 reporting.
  Task       23 on host ravg1039 reporting.
  Task       24 on host ravg1039 reporting.
  Task       25 on host ravg1039 reporting.
  Task       26 on host ravg1039 reporting.
  Task       27 on host ravg1039 reporting.
  Task       28 on host ravg1039 reporting.
  Task       29 on host ravg1039 reporting.
  Task       30 on host ravg1039 reporting.
  Task       31 on host ravg1039 reporting.
  Task       32 on host ravg1039 reporting.
  Task       33 on host ravg1039 reporting.
  Task       34 on host ravg1039 reporting.
  Task       35 on host ravg1039 reporting.
  Task       36 on host ravg1039 reporting.
  Task       37 on host ravg1039 reporting.
  Task       38 on host ravg1039 reporting.
  Task       39 on host ravg1039 reporting.
  Task       40 on host ravg1039 reporting.
  Task       41 on host ravg1039 reporting.
  Task       42 on host ravg1039 reporting.
  Task       43 on host ravg1039 reporting.
  Task       44 on host ravg1039 reporting.
  Task       45 on host ravg1039 reporting.
  Task       46 on host ravg1039 reporting.
  Task       47 on host ravg1039 reporting.
  Task       48 on host ravg1039 reporting.
  Task       49 on host ravg1039 reporting.
  Task       50 on host ravg1039 reporting.
  Task       51 on host ravg1039 reporting.
  Task       52 on host ravg1039 reporting.
  Task       53 on host ravg1039 reporting.
  Task       54 on host ravg1039 reporting.
  Task       55 on host ravg1039 reporting.
  Task       56 on host ravg1039 reporting.
  Task       57 on host ravg1039 reporting.
  Task       58 on host ravg1039 reporting.
  Task       59 on host ravg1039 reporting.
  Task       60 on host ravg1039 reporting.
  Task       61 on host ravg1039 reporting.
  Task       62 on host ravg1039 reporting.
  Task       63 on host ravg1039 reporting.
  Task       64 on host ravg1039 reporting.
  Task       65 on host ravg1039 reporting.
  Task       66 on host ravg1039 reporting.
  Task       67 on host ravg1039 reporting.
  Task       68 on host ravg1039 reporting.
  Task       69 on host ravg1039 reporting.
  Task       70 on host ravg1039 reporting.
  Task       71 on host ravg1039 reporting.
  Task       72 on host ravg1059 reporting.
  Task       73 on host ravg1059 reporting.
  Task       74 on host ravg1059 reporting.
  Task       75 on host ravg1059 reporting.
  Task       76 on host ravg1059 reporting.
  Task       77 on host ravg1059 reporting.
  Task       78 on host ravg1059 reporting.
  Task       79 on host ravg1059 reporting.
  Task       80 on host ravg1059 reporting.
  Task       81 on host ravg1059 reporting.
  Task       82 on host ravg1059 reporting.
  Task       83 on host ravg1059 reporting.
  Task       84 on host ravg1059 reporting.
  Task       85 on host ravg1059 reporting.
  Task       86 on host ravg1059 reporting.
  Task       87 on host ravg1059 reporting.
  Task       88 on host ravg1059 reporting.
  Task       89 on host ravg1059 reporting.
  Task       90 on host ravg1059 reporting.
  Task       91 on host ravg1059 reporting.
  Task       92 on host ravg1059 reporting.
  Task       93 on host ravg1059 reporting.
  Task       94 on host ravg1059 reporting.
  Task       95 on host ravg1059 reporting.
  Task       96 on host ravg1059 reporting.
  Task       97 on host ravg1059 reporting.
  Task       98 on host ravg1059 reporting.
  Task       99 on host ravg1059 reporting.
  Task      100 on host ravg1059 reporting.
  Task      101 on host ravg1059 reporting.
  Task      102 on host ravg1059 reporting.
  Task      103 on host ravg1059 reporting.
  Task      104 on host ravg1059 reporting.
  Task      105 on host ravg1059 reporting.
  Task      106 on host ravg1059 reporting.
  Task      107 on host ravg1059 reporting.
  Task      108 on host ravg1059 reporting.
  Task      109 on host ravg1059 reporting.
  Task      110 on host ravg1059 reporting.
  Task      111 on host ravg1059 reporting.
  Task      112 on host ravg1059 reporting.
  Task      113 on host ravg1059 reporting.
  Task      114 on host ravg1059 reporting.
  Task      115 on host ravg1059 reporting.
  Task      116 on host ravg1059 reporting.
  Task      117 on host ravg1059 reporting.
  Task      118 on host ravg1059 reporting.
  Task      119 on host ravg1059 reporting.
  Task      120 on host ravg1059 reporting.
  Task      121 on host ravg1059 reporting.
  Task      122 on host ravg1059 reporting.
  Task      123 on host ravg1059 reporting.
  Task      124 on host ravg1059 reporting.
  Task      125 on host ravg1059 reporting.
  Task      126 on host ravg1059 reporting.
  Task      127 on host ravg1059 reporting.
  Task      128 on host ravg1059 reporting.
  Task      129 on host ravg1059 reporting.
  Task      130 on host ravg1059 reporting.
  Task      131 on host ravg1059 reporting.
  Task      132 on host ravg1059 reporting.
  Task      133 on host ravg1059 reporting.
  Task      134 on host ravg1059 reporting.
  Task      135 on host ravg1059 reporting.
  Task      136 on host ravg1059 reporting.
  Task      137 on host ravg1059 reporting.
  Task      138 on host ravg1059 reporting.
  Task      139 on host ravg1059 reporting.
  Task      140 on host ravg1059 reporting.
  Task      141 on host ravg1059 reporting.
  Task      142 on host ravg1059 reporting.
  Task      143 on host ravg1059 reporting.
  Task      144 on host ravg1062 reporting.
  Task      145 on host ravg1062 reporting.
  Task      146 on host ravg1062 reporting.
  Task      147 on host ravg1062 reporting.
  Task      148 on host ravg1062 reporting.
  Task      149 on host ravg1062 reporting.
  Task      150 on host ravg1062 reporting.
  Task      151 on host ravg1062 reporting.
  Task      152 on host ravg1062 reporting.
  Task      153 on host ravg1062 reporting.
  Task      154 on host ravg1062 reporting.
  Task      155 on host ravg1062 reporting.
  Task      156 on host ravg1062 reporting.
  Task      157 on host ravg1062 reporting.
  Task      158 on host ravg1062 reporting.
  Task      159 on host ravg1062 reporting.
  Task      160 on host ravg1062 reporting.
  Task      161 on host ravg1062 reporting.
  Task      162 on host ravg1062 reporting.
  Task      163 on host ravg1062 reporting.
  Task      164 on host ravg1062 reporting.
  Task      165 on host ravg1062 reporting.
  Task      166 on host ravg1062 reporting.
  Task      167 on host ravg1062 reporting.
  Task      168 on host ravg1062 reporting.
  Task      169 on host ravg1062 reporting.
  Task      170 on host ravg1062 reporting.
  Task      171 on host ravg1062 reporting.
  Task      172 on host ravg1062 reporting.
  Task      173 on host ravg1062 reporting.
  Task      174 on host ravg1062 reporting.
  Task      175 on host ravg1062 reporting.
  Task      176 on host ravg1062 reporting.
  Task      177 on host ravg1062 reporting.
  Task      178 on host ravg1062 reporting.
  Task      179 on host ravg1062 reporting.
  Task      180 on host ravg1062 reporting.
  Task      181 on host ravg1062 reporting.
  Task      182 on host ravg1062 reporting.
  Task      183 on host ravg1062 reporting.
  Task      184 on host ravg1062 reporting.
  Task      185 on host ravg1062 reporting.
  Task      186 on host ravg1062 reporting.
  Task      187 on host ravg1062 reporting.
  Task      188 on host ravg1062 reporting.
  Task      189 on host ravg1062 reporting.
  Task      190 on host ravg1062 reporting.
  Task      191 on host ravg1062 reporting.
  Task      192 on host ravg1062 reporting.
  Task      193 on host ravg1062 reporting.
  Task      194 on host ravg1062 reporting.
  Task      195 on host ravg1062 reporting.
  Task      196 on host ravg1062 reporting.
  Task      197 on host ravg1062 reporting.
  Task      198 on host ravg1062 reporting.
  Task      199 on host ravg1062 reporting.
  Task      200 on host ravg1062 reporting.
  Task      201 on host ravg1062 reporting.
  Task      202 on host ravg1062 reporting.
  Task      203 on host ravg1062 reporting.
  Task      204 on host ravg1062 reporting.
  Task      205 on host ravg1062 reporting.
  Task      206 on host ravg1062 reporting.
  Task      207 on host ravg1062 reporting.
  Task      208 on host ravg1062 reporting.
  Task      209 on host ravg1062 reporting.
  Task      210 on host ravg1062 reporting.
  Task      211 on host ravg1062 reporting.
  Task      212 on host ravg1062 reporting.
  Task      213 on host ravg1062 reporting.
  Task      214 on host ravg1062 reporting.
  Task      215 on host ravg1062 reporting.
  Task      216 on host ravg1067 reporting.
  Task      217 on host ravg1067 reporting.
  Task      218 on host ravg1067 reporting.
  Task      219 on host ravg1067 reporting.
  Task      220 on host ravg1067 reporting.
  Task      221 on host ravg1067 reporting.
  Task      222 on host ravg1067 reporting.
  Task      223 on host ravg1067 reporting.
  Task      224 on host ravg1067 reporting.
  Task      225 on host ravg1067 reporting.
  Task      226 on host ravg1067 reporting.
  Task      227 on host ravg1067 reporting.
  Task      228 on host ravg1067 reporting.
  Task      229 on host ravg1067 reporting.
  Task      230 on host ravg1067 reporting.
  Task      231 on host ravg1067 reporting.
  Task      232 on host ravg1067 reporting.
  Task      233 on host ravg1067 reporting.
  Task      234 on host ravg1067 reporting.
  Task      235 on host ravg1067 reporting.
  Task      236 on host ravg1067 reporting.
  Task      237 on host ravg1067 reporting.
  Task      238 on host ravg1067 reporting.
  Task      239 on host ravg1067 reporting.
  Task      240 on host ravg1067 reporting.
  Task      241 on host ravg1067 reporting.
  Task      242 on host ravg1067 reporting.
  Task      243 on host ravg1067 reporting.
  Task      244 on host ravg1067 reporting.
  Task      245 on host ravg1067 reporting.
  Task      246 on host ravg1067 reporting.
  Task      247 on host ravg1067 reporting.
  Task      248 on host ravg1067 reporting.
  Task      249 on host ravg1067 reporting.
  Task      250 on host ravg1067 reporting.
  Task      251 on host ravg1067 reporting.
  Task      252 on host ravg1067 reporting.
  Task      253 on host ravg1067 reporting.
  Task      254 on host ravg1067 reporting.
  Task      255 on host ravg1067 reporting.
  Task      256 on host ravg1067 reporting.
  Task      257 on host ravg1067 reporting.
  Task      258 on host ravg1067 reporting.
  Task      259 on host ravg1067 reporting.
  Task      260 on host ravg1067 reporting.
  Task      261 on host ravg1067 reporting.
  Task      262 on host ravg1067 reporting.
  Task      263 on host ravg1067 reporting.
  Task      264 on host ravg1067 reporting.
  Task      265 on host ravg1067 reporting.
  Task      266 on host ravg1067 reporting.
  Task      267 on host ravg1067 reporting.
  Task      268 on host ravg1067 reporting.
  Task      269 on host ravg1067 reporting.
  Task      270 on host ravg1067 reporting.
  Task      271 on host ravg1067 reporting.
  Task      272 on host ravg1067 reporting.
  Task      273 on host ravg1067 reporting.
  Task      274 on host ravg1067 reporting.
  Task      275 on host ravg1067 reporting.
  Task      276 on host ravg1067 reporting.
  Task      277 on host ravg1067 reporting.
  Task      278 on host ravg1067 reporting.
  Task      279 on host ravg1067 reporting.
  Task      280 on host ravg1067 reporting.
  Task      281 on host ravg1067 reporting.
  Task      282 on host ravg1067 reporting.
  Task      283 on host ravg1067 reporting.
  Task      284 on host ravg1067 reporting.
  Task      285 on host ravg1067 reporting.
  Task      286 on host ravg1067 reporting.
  Task      287 on host ravg1067 reporting.
  Task      288 on host ravg1068 reporting.
  Task      289 on host ravg1068 reporting.
  Task      290 on host ravg1068 reporting.
  Task      291 on host ravg1068 reporting.
  Task      292 on host ravg1068 reporting.
  Task      293 on host ravg1068 reporting.
  Task      294 on host ravg1068 reporting.
  Task      295 on host ravg1068 reporting.
  Task      296 on host ravg1068 reporting.
  Task      297 on host ravg1068 reporting.
  Task      298 on host ravg1068 reporting.
  Task      299 on host ravg1068 reporting.
  Task      300 on host ravg1068 reporting.
  Task      301 on host ravg1068 reporting.
  Task      302 on host ravg1068 reporting.
  Task      303 on host ravg1068 reporting.
  Task      304 on host ravg1068 reporting.
  Task      305 on host ravg1068 reporting.
  Task      306 on host ravg1068 reporting.
  Task      307 on host ravg1068 reporting.
  Task      308 on host ravg1068 reporting.
  Task      309 on host ravg1068 reporting.
  Task      310 on host ravg1068 reporting.
  Task      311 on host ravg1068 reporting.
  Task      312 on host ravg1068 reporting.
  Task      313 on host ravg1068 reporting.
  Task      314 on host ravg1068 reporting.
  Task      315 on host ravg1068 reporting.
  Task      316 on host ravg1068 reporting.
  Task      317 on host ravg1068 reporting.
  Task      318 on host ravg1068 reporting.
  Task      319 on host ravg1068 reporting.
  Task      320 on host ravg1068 reporting.
  Task      321 on host ravg1068 reporting.
  Task      322 on host ravg1068 reporting.
  Task      323 on host ravg1068 reporting.
  Task      324 on host ravg1068 reporting.
  Task      325 on host ravg1068 reporting.
  Task      326 on host ravg1068 reporting.
  Task      327 on host ravg1068 reporting.
  Task      328 on host ravg1068 reporting.
  Task      329 on host ravg1068 reporting.
  Task      330 on host ravg1068 reporting.
  Task      331 on host ravg1068 reporting.
  Task      332 on host ravg1068 reporting.
  Task      333 on host ravg1068 reporting.
  Task      334 on host ravg1068 reporting.
  Task      335 on host ravg1068 reporting.
  Task      336 on host ravg1068 reporting.
  Task      337 on host ravg1068 reporting.
  Task      338 on host ravg1068 reporting.
  Task      339 on host ravg1068 reporting.
  Task      340 on host ravg1068 reporting.
  Task      341 on host ravg1068 reporting.
  Task      342 on host ravg1068 reporting.
  Task      343 on host ravg1068 reporting.
  Task      344 on host ravg1068 reporting.
  Task      345 on host ravg1068 reporting.
  Task      346 on host ravg1068 reporting.
  Task      347 on host ravg1068 reporting.
  Task      348 on host ravg1068 reporting.
  Task      349 on host ravg1068 reporting.
  Task      350 on host ravg1068 reporting.
  Task      351 on host ravg1068 reporting.
  Task      352 on host ravg1068 reporting.
  Task      353 on host ravg1068 reporting.
  Task      354 on host ravg1068 reporting.
  Task      355 on host ravg1068 reporting.
  Task      356 on host ravg1068 reporting.
  Task      357 on host ravg1068 reporting.
  Task      358 on host ravg1068 reporting.
  Task      359 on host ravg1068 reporting.
  Task      360 on host ravg1095 reporting.
  Task      361 on host ravg1095 reporting.
  Task      362 on host ravg1095 reporting.
  Task      363 on host ravg1095 reporting.
  Task      364 on host ravg1095 reporting.
  Task      365 on host ravg1095 reporting.
  Task      366 on host ravg1095 reporting.
  Task      367 on host ravg1095 reporting.
  Task      368 on host ravg1095 reporting.
  Task      369 on host ravg1095 reporting.
  Task      370 on host ravg1095 reporting.
  Task      371 on host ravg1095 reporting.
  Task      372 on host ravg1095 reporting.
  Task      373 on host ravg1095 reporting.
  Task      374 on host ravg1095 reporting.
  Task      375 on host ravg1095 reporting.
  Task      376 on host ravg1095 reporting.
  Task      377 on host ravg1095 reporting.
  Task      378 on host ravg1095 reporting.
  Task      379 on host ravg1095 reporting.
  Task      380 on host ravg1095 reporting.
  Task      381 on host ravg1095 reporting.
  Task      382 on host ravg1095 reporting.
  Task      383 on host ravg1095 reporting.
  Task      384 on host ravg1095 reporting.
  Task      385 on host ravg1095 reporting.
  Task      386 on host ravg1095 reporting.
  Task      387 on host ravg1095 reporting.
  Task      388 on host ravg1095 reporting.
  Task      389 on host ravg1095 reporting.
  Task      390 on host ravg1095 reporting.
  Task      391 on host ravg1095 reporting.
  Task      392 on host ravg1095 reporting.
  Task      393 on host ravg1095 reporting.
  Task      394 on host ravg1095 reporting.
  Task      395 on host ravg1095 reporting.
  Task      396 on host ravg1095 reporting.
  Task      397 on host ravg1095 reporting.
  Task      398 on host ravg1095 reporting.
  Task      399 on host ravg1095 reporting.
  Task      400 on host ravg1095 reporting.
  Task      401 on host ravg1095 reporting.
  Task      402 on host ravg1095 reporting.
  Task      403 on host ravg1095 reporting.
  Task      404 on host ravg1095 reporting.
  Task      405 on host ravg1095 reporting.
  Task      406 on host ravg1095 reporting.
  Task      407 on host ravg1095 reporting.
  Task      408 on host ravg1095 reporting.
  Task      409 on host ravg1095 reporting.
  Task      410 on host ravg1095 reporting.
  Task      411 on host ravg1095 reporting.
  Task      412 on host ravg1095 reporting.
  Task      413 on host ravg1095 reporting.
  Task      414 on host ravg1095 reporting.
  Task      415 on host ravg1095 reporting.
  Task      416 on host ravg1095 reporting.
  Task      417 on host ravg1095 reporting.
  Task      418 on host ravg1095 reporting.
  Task      419 on host ravg1095 reporting.
  Task      420 on host ravg1095 reporting.
  Task      421 on host ravg1095 reporting.
  Task      422 on host ravg1095 reporting.
  Task      423 on host ravg1095 reporting.
  Task      424 on host ravg1095 reporting.
  Task      425 on host ravg1095 reporting.
  Task      426 on host ravg1095 reporting.
  Task      427 on host ravg1095 reporting.
  Task      428 on host ravg1095 reporting.
  Task      429 on host ravg1095 reporting.
  Task      430 on host ravg1095 reporting.
  Task      431 on host ravg1095 reporting.

  Performing system and environment tests:
  | Environment variable OMP_NUM_THREADS correctly set to 1.
  | Checking for ScaLAPACK...
  | Testing pdtran()...
  | All pdtran() tests passed.

  Obtaining array dimensions for all initial allocations:
  
  -----------------------------------------------------------------------
  Parsing control.in (first pass over file, find array dimensions only).
  The contents of control.in will be repeated verbatim below
  unless switched off by setting 'verbatim_writeout .false.' .
  in the first line of control.in .
  -----------------------------------------------------------------------
  
  ##### Physical settings  ################
  xc                 pbe
  spin               none
  #default_initial_moment 1
  charge      0.0
  relativistic       atomic_zora scalar
  use_local_index .true.
  #elsi_restart read
  #relax_geometry trm 1E-2
  #relax_unit_cell fixed_angles
  #relax_unit_cell full
  #vdw_correction_hirshfeld
  occupation_type gaussian       0.15
  # k-grid settings  (to be adjusted)
  k_grid  4 4 1
  empty_states 18
  use_dipole_correction
  frozen_core_scf .true.
  frozen_core_scf_cutoff -300
  many_body_dispersion_nl    beta=0.81
  
  # SO
  
  #include_spin_orbit non_self_consistent
  # PDOS
  #output dos_tetrahedron -20 2 8001
  #output atom_proj_dos_tetrahedron -20 2 8001
  #output species_proj_dos_tetrahedron -20 2 8001
  
  # STM
  
  output cube stm -2.0
  ## electronic density
  #output cube total_density
  #
  ## KS eigenstates
  #output cube eigenstate 17000
  #output cube eigenstate_density 17000
  ################################################################################
  #
  #  FHI-aims code project
  #  Volker Blum, Fritz Haber Institute Berlin, 2009
  #
  #  Suggested "tight" defaults for S atom (to be pasted into control.in file)
  #
  #  Revised Jan 04, 2011, following tests (SiC) done by Lydia Nemec:
  #     d and g functions of tier 2 now enabled by default.
  #
  ################################################################################
    species        S
  #     global species definitions
      nucleus             16
      mass                32.065
  #
      l_hartree           6
  #
      cut_pot             4.0          2.0  1.0
      basis_dep_cutoff    1e-4
  #
      radial_base         44 7.0
      radial_multiplier   2
      angular_grids       specified
        division   0.4665  110
        division   0.5810  194
        division   0.7139  302
        division   0.8274  434
  #      division   0.9105  590
  #      division   1.0975  770
  #      division   1.2028  974
  #      outer_grid  974
        outer_grid  434
  ################################################################################
  #
  #  Definition of "minimal" basis
  #
  ################################################################################
  #     valence basis states
      valence      3  s   2.
      valence      3  p   4.
  #     ion occupancy
      ion_occ      3  s   1.
      ion_occ      3  p   3.
  ################################################################################
  #
  #  Suggested additional basis functions. For production calculations,
  #  uncomment them one after another (the most important basis functions are
  #  listed first).
  #
  #  Constructed for dimers: 1.6 A, 1.9 A, 2.5 A, 3.25 A, 4.0 A
  #
  ################################################################################
  #  "First tier" - improvements: -652.81 meV to -45.53 meV
       ionic 3 d auto
       hydro 2 p 1.8
       hydro 4 f 7
       ionic 3 s auto
  #  "Second tier" - improvements: -30.20 meV to -1.74 meV
       hydro 4 d 6.2
       hydro 5 g 10.8
  #     hydro 4 p 4.9
  #     hydro 5 f 10
  #     hydro 1 s 0.8
  #  "Third tier" - improvements: -1.04 meV to -0.20 meV
  #     hydro 3 d 3.9
  #     hydro 3 d 2.7
  #     hydro 5 g 12
  #     hydro 4 p 10.4
  #     hydro 5 f 12.4
  #     hydro 2 s 1.9
  #  "Fourth tier" - improvements: -0.35 meV to -0.06 meV
  #     hydro 4 d 10.4
  #     hydro 4 p 7.2
  #     hydro 4 d 10
  #     hydro 5 g 19.2
  #     hydro 4 s 12
  
  ################################################################################
  #
  # For methods that use the localized form of the "resolution of identity" for
  # the two-electron Coulomb operator (RI_method LVL), particularly Hartree-Fock and
  # hybrid density functional calculations, the highest accuracy can be obtained by
  # uncommenting the line beginning with "for_aux"  below, thus adding an extra g radial
  # function to the construction of the product basis set for the expansion.
  # See Ref. New J. Phys. 17, 093020 (2015) for more information, particularly Figs. 1 and 6.
  #
  ################################################################################
  #
  # for_aux hydro 5 g 6.0
  ################################################################################
  #
  #  FHI-aims code project
  #  Volker Blum, Fritz Haber Institute Berlin, 2009
  #
  #  Suggested "tight" defaults for Mo atom (to be pasted into control.in file)
  #
  ################################################################################
    species        Mo
  #     global species definitions
      nucleus             42
      mass                95.94
  #
      l_hartree           6
  #
      cut_pot             4.0  2.0  1.0
      basis_dep_cutoff    1e-4
  #
      radial_base         59 7.0
      radial_multiplier   2
      angular_grids specified
        division   0.3117   50
        division   0.6750  110
        division   1.0351  194
        division   1.2073  302
        division   1.6402  434
  #      division   1.9185  590
  #      division   2.0237  770
  #      division   2.0980  974
  #      division   2.7972 1202
  #      outer_grid  974
        outer_grid  434
  ################################################################################
  #
  #  Definition of "minimal" basis
  #
  ################################################################################
  #     valence basis states
      valence      5  s   1.
      valence      4  p   6.
      valence      4  d   5.
  #     ion occupancy
      ion_occ     5  s   0.
      ion_occ     4  p   6.
      ion_occ     4  d   4.
  ################################################################################
  #
  #  Suggested additional basis functions. For production calculations,
  #  uncomment them one after another (the most important basis functions are
  #  listed first).
  #
  #  Constructed for dimers: 1.675 A, 1.9 A, 2.375 A, 3.00 A, 4.00 A
  #
  ################################################################################
  #  "First tier"  - max. impr. -711.23  meV, min. impr. -21.07 meV
       hydro 4 f 8.4
       hydro 3 d 2.8
       ionic 5 p auto
       hydro 5 g 12
       ionic 5 s auto
  #  "Second tier" - max. impr. -39.38  meV, min. impr. -2.68 meV
  #     hydro 4 f 12.4
  #     hydro 3 d 3.3
  #     hydro 6 h 17.2
  #     hydro 4 f 7.6
  #     hydro 3 p 3.0
  #     hydro 1 s 0.65
  #  "Third tier"  - max. impr. -5.50 meV, min. impr. -0.47 meV
  #     hydro 4 f 29.2
  #     hydro 5 g 11.2
  #     hydro 3 d 6.8
  #     hydro 6 h 14.8
  #     hydro 2 p 2.3
  #     hydro 4 s 3.8
  #  "Fourth tier"  - max. impr. -0.58 meV, min. impr. -0.19 meV
  #     hydro 5 f 6.8
  #     hydro 5 d 14.8
  #     hydro 6 s 7.8
  #     hydro 5 g 20.8
  #     hydro 5 d 10.4
  #     hydro 5 p 9.8
  #  Further functions - -0.17 meV and below
  #     hydro 5 d 3.2
  ################################################################################
  #
  #  FHI-aims code project
  #  Volker Blum, Fritz Haber Institute Berlin, 2009
  #
  #  Suggested "tight" defaults for Au atom (to be pasted into control.in file)
  #
  #  Feb. 16, 2013: Commented out the "h" basis function from tier 1 in the default.
  #                 Au is the only element to have this, and it usually does not
  #                 make a difference. With the advent of hybrid functionals, the
  #                 extra effort is critical.
  #
  ################################################################################
    species        Au
  #     global species definitions
      nucleus             79
      mass                196.966569
  #
      l_hartree           6
  #
      cut_pot             4.0  2.0  1.0
      basis_dep_cutoff    1e-4
  #
      radial_base         73 7.0
      radial_multiplier   2
      angular_grids specified
        division   0.3416   50
        division   0.7206  110
        division   1.1171  194
        division   1.2821  302
        division   1.5560  434
  #      division   2.1046  590
  #      division   2.2363  770
  #      division   2.2710  974
  #      division   2.8078 1202
  #      outer_grid 1202
        outer_grid  434
   ################################################################################
  #
  #  Definition of "minimal" basis
  #
  ################################################################################
  #     valence basis states
      valence      6  s   1.
      valence      5  p   6.
      valence      5  d  10.
      valence      4  f  14.
  #     ion occupancy
      ion_occ     6  s   0.
      ion_occ     5  p   6.
      ion_occ     5  d   9.
      ion_occ     4  f   14.
  ################################################################################
  #
  #  Suggested additional basis functions. For production calculations,
  #  uncomment them one after another (the most important basis functions are
  #  listed first).
  #
  #  Constructed for dimers: 2.10, 2.45, 3.00, 4.00 AA
  #
  ################################################################################
  #  "First tier" - max. impr. -161.60  meV, min. impr. -4.53 meV
       ionic 6 p auto
       hydro 4 f 7.4
       ionic 6 s auto
       hydro 5 g 10
  #     hydro 6 h 12.8
       hydro 3 d 2.5
  #  "Second tier" - max. impr. -2.46  meV, min. impr. -0.28 meV
  #     hydro 5 f 14.8
  #     hydro 4 d 3.9
  #     hydro 3 p 3.3
  #     hydro 1 s 0.45
  #     hydro 5 g 16.4
  #     hydro 6 h 13.6
  #  "Third tier" - max. impr. -0.49  meV, min. impr. -0.09 meV
  #     hydro 4 f 5.2
  #     hydro 4 d 5
  #     hydro 5 g 8
  #     hydro 5 p 8.2
  #     hydro 6 d 12.4
  #     hydro 6 s 14.8
  #  Further basis functions: -0.08 meV and below
  #     hydro 5 f 18.8
  #     hydro 5 g 20
  #    hydro 5 g 15.2
  
  -----------------------------------------------------------------------
  Completed first pass over input file control.in .
  -----------------------------------------------------------------------
  
  
  -----------------------------------------------------------------------
  Parsing geometry.in (first pass over file, find array dimensions only).
  The contents of geometry.in will be repeated verbatim below
  unless switched off by setting 'verbatim_writeout .false.' .
  in the first line of geometry.in .
  -----------------------------------------------------------------------
  
  #
  # This is the geometry file that corresponds to the current relaxation step.
  # If you do not want this file to be written, set the "write_restart_geometry" flag to .false.
  #  aims_uuid : 1E5704D0-E0C5-43FE-A952-98EE630C0F9A
  #
    set_vacuum_level         2.836590
  lattice_vector     26.28331574      0.00000000      0.00000000
  lattice_vector     13.14165787     22.76201912      0.00000000
  lattice_vector      0.00000000      0.00000000    107.15341248
  atom      -0.03181074     -0.01438289     49.74003622 Au
  atom       2.92603573      0.00014049     49.69767476 Au
  atom       5.88063049     -0.02398726     49.77144808 Au
  atom       8.81399772     -0.05317933     49.90539675 Au
  atom      11.72259441     -0.06190439     50.02810412 Au
  atom      14.61400846     -0.05988750     50.09550825 Au
  atom      17.50046517     -0.06059185     50.08347395 Au
  atom      20.39575741     -0.06129386     49.99678995 Au
  atom      23.31096798     -0.04653892     49.86521229 Au
  atom       1.45962401      2.56042408     49.72449629 Au
  atom       4.38150204      2.55368950     49.73382070 Au
  atom       7.30511986      2.51379014     49.79271463 Au
  atom      10.22913791      2.47988514     49.85961549 Au
  atom      13.14798075      2.46826619     49.90361968 Au
  atom      16.06082832      2.46696985     49.91524656 Au
  atom      18.97483284      2.46992429     49.89366755 Au
  atom      21.89544402      2.48731415     49.84144319 Au
  atom      24.81985101      2.52637830     49.77255119 Au
  atom       2.91691412      5.13816667     49.83571876 Au
  atom       5.81654965      5.11137764     49.83016486 Au
  atom       8.72733582      5.06380004     49.82233530 Au
  atom      11.65467917      5.02905104     49.81351120 Au
  atom      14.59402465      5.01711627     49.80540218 Au
  atom      17.53620599      5.01883234     49.80707860 Au
  atom      20.47281037      5.03658730     49.81639143 Au
  atom      23.39543079      5.07764262     49.82431090 Au
  atom      26.30212644      5.12290372     49.83219792 Au
  atom       4.36298840      7.68081434     49.99938605 Au
  atom       7.25935593      7.64964522     49.92655511 Au
  atom      10.17145271      7.61020634     49.84107839 Au
  atom      13.10966356      7.58650500     49.78221182 Au
  atom      16.06777561      7.58170626     49.76585538 Au
  atom      19.02210748      7.59102424     49.79581271 Au
  atom      21.95266023      7.62086273     49.86445265 Au
  atom      24.85864640      7.66087996     49.95159010 Au
  atom      27.75321406      7.68507518     50.01075448 Au
  atom       5.81122106     10.18848875     50.13697078 Au
  atom       8.71013220     10.16671059     49.98682879 Au
  atom      11.63138540     10.14879006     49.84661255 Au
  atom      14.58509450     10.14504513     49.77800836 Au
  atom      17.55122883     10.14521052     49.78990934 Au
  atom      20.49627498     10.15261748     49.88091504 Au
  atom      23.40908719     10.17357852     50.03327123 Au
  atom      26.30550533     10.19303537     50.16895866 Au
  atom      29.19998727     10.19871249     50.20910199 Au
  atom       7.25557641     12.68208589     50.19736558 Au
  atom      10.15946061     12.67600177     49.99251157 Au
  atom      13.09840788     12.68368853     49.84297605 Au
  atom      16.07010425     12.68997513     49.80306080 Au
  atom      19.03544125     12.68028889     49.87478147 Au
  atom      21.96252925     12.67669774     50.05151472 Au
  atom      24.86115890     12.68516887     50.24852975 Au
  atom      27.75370231     12.69275519     50.35445829 Au
  atom      30.64572929     12.69133619     50.33603860 Au
  atom       8.69384095     15.17789271     50.15815433 Au
  atom      11.61158914     15.18960452     49.94285682 Au
  atom      14.57764832     15.21097119     49.82618429 Au
  atom      17.56409908     15.20613352     49.84639747 Au
  atom      20.51641034     15.18410835     49.99922561 Au
  atom      23.42330944     15.17841873     50.22192292 Au
  atom      26.31266983     15.18434280     50.38588694 Au
  atom      29.19875438     15.18685392     50.43192621 Au
  atom      32.08531552     15.18240219     50.34943183 Au
  atom      10.13779925     17.68333618     50.03393581 Au
  atom      13.08253959     17.70828409     49.85228056 Au
  atom      16.07319872     17.72176342     49.79792691 Au
  atom      19.05446883     17.70001903     49.89497731 Au
  atom      21.98370530     17.67989973     50.09812554 Au
  atom      24.87661585     17.68035115     50.29608484 Au
  atom      27.75802638     17.68514346     50.40034813 Au
  atom      30.63778334     17.68404766     50.38208257 Au
  atom      33.52099780     17.67885010     50.24532493 Au
  atom      11.60878443     20.20325781     49.87060693 Au
  atom      14.57747355     20.22925502     49.75145179 Au
  atom      17.56449357     20.22351811     49.77420668 Au
  atom      20.52061706     20.19588796     49.92300781 Au
  atom      23.43289525     20.18446667     50.10989968 Au
  atom      26.31952293     20.18807358     50.24913058 Au
  atom      29.19745473     20.19041045     50.28854045 Au
  atom      32.07670853     20.18643759     50.21703017 Au
  atom      34.96852924     20.18538388     50.05663184 Au
  atom       1.45509348      0.84842583     52.07788278 Au
  atom       4.38911971      0.84336943     52.09470986 Au
  atom       7.32147940      0.81460600     52.20848416 Au
  atom      10.24448167      0.79494317     52.35276659 Au
  atom      13.15527300      0.79226503     52.46141977 Au
  atom      16.05967309      0.79301798     52.49365186 Au
  atom      18.96484849      0.79210095     52.43635327 Au
  atom      21.87866699      0.79847523     52.31238084 Au
  atom      24.80522834      0.82340865     52.16898235 Au
  atom       2.91811933      3.40704875     52.13633699 Au
  atom       5.82777303      3.38722385     52.15391025 Au
  atom       8.74998620      3.35178537     52.19610324 Au
  atom      11.67852520      3.32731579     52.24455923 Au
  atom      14.60209766      3.31944713     52.27413123 Au
  atom      17.52217575      3.32052735     52.26864390 Au
  atom      20.44745364      3.33244986     52.23156959 Au
  atom      23.37544072      3.36189626     52.18186252 Au
  atom      26.29392782      3.39559565     52.14564019 Au
  atom       4.36346586      5.95944099     52.30194634 Au
  atom       7.26528649      5.93666894     52.24904969 Au
  atom      10.18653660      5.90379599     52.19365020 Au
  atom      13.12370735      5.88020858     52.15969358 Au
  atom      16.06493960      5.87398029     52.15058959 Au
  atom      19.00589769      5.88521848     52.16707422 Au
  atom      21.93986853      5.91303831     52.20774036 Au
  atom      24.85483034      5.94516018     52.26597783 Au
  atom      27.75301326      5.96238355     52.31073823 Au
  atom       5.81343316      8.48601692     52.47759190 Au
  atom       8.71536027      8.47271764     52.33380939 Au
  atom      11.63920817      8.45225667     52.19664343 Au
  atom      14.58822854      8.43918053     52.12371260 Au
  atom      17.54565635      8.44156628     52.13661953 Au
  atom      20.48869834      8.45829662     52.23103170 Au
  atom      23.40478141      8.47801237     52.37825919 Au
  atom      26.30380789      8.48769537     52.50807157 Au
  atom      29.20030124      8.48904658     52.54691486 Au
  atom       7.26736673     10.99805826     52.58882712 Au
  atom      10.17035128     10.99596980     52.37253327 Au
  atom      13.10368978     10.99164282     52.19660387 Au
  atom      16.06904312     10.99062746     52.14573553 Au
  atom      19.02831429     10.99280801     52.23654879 Au
  atom      21.95059820     10.99707301     52.43675568 Au
  atom      24.85032433     10.99785730     52.63953564 Au
  atom      27.75037350     10.99636881     52.74333857 Au
  atom      30.65156696     10.99654168     52.72538612 Au
  atom       8.71874338     13.51015674     52.60022004 Au
  atom      11.62687623     13.51695422     52.34675543 Au
  atom      14.58128298     13.52591598     52.19337263 Au
  atom      17.55757154     13.52381269     52.22012031 Au
  atom      20.49732931     13.51427622     52.41646794 Au
  atom      23.39851078     13.50932731     52.66725765 Au
  atom      26.29788985     13.50716162     52.83042182 Au
  atom      29.20143894     13.50645033     52.87506257 Au
  atom      32.10430278     13.50766602     52.79501201 Au
  atom      10.16701416     16.02473144     52.50910411 Au
  atom      13.09423665     16.04081691     52.26919999 Au
  atom      16.07137904     16.04953902     52.19323492 Au
  atom      19.03780722     16.03541580     52.32705713 Au
  atom      21.95085487     16.02289449     52.58664021 Au
  atom      24.84678735     16.02156951     52.80207859 Au
  atom      27.74905171     16.02134171     52.90575401 Au
  atom      30.65395346     16.02137573     52.88786366 Au
  atom      33.55405301     16.02147907     52.75044566 Au
  atom      11.62509813     18.54284791     52.34289297 Au
  atom      14.58043648     18.56213619     52.17248613 Au
  atom      17.55848850     18.55774381     52.20424768 Au
  atom      20.49913411     18.53804111     52.41539091 Au
  atom      23.40014543     18.53287695     52.65912890 Au
  atom      26.29800332     18.53490993     52.81620394 Au
  atom      29.20138110     18.53573335     52.85753509 Au
  atom      32.10375007     18.53426351     52.78218543 Au
  atom      34.99999851     18.53272631     52.59413227 Au
  atom      13.10841551     21.06851772     52.16693381 Au
  atom      16.06800126     21.07961837     52.10231630 Au
  atom      19.02269462     21.06153798     52.21591955 Au
  atom      21.94713682     21.04346904     52.42622649 Au
  atom      24.84973195     21.04291184     52.61342208 Au
  atom      27.75019532     21.04602000     52.70752919 Au
  atom      30.65179076     21.04539343     52.69133823 Au
  atom      33.55144697     21.04188935     52.56628296 Au
  atom      36.45808762     21.04659557     52.36248019 Au
  atom      26.29451241      1.68680909     54.45011413 Au
  atom       2.91791812      1.68831516     54.42090431 Au
  atom       5.82643669      1.68592406     54.47379170 Au
  atom       8.74504045      1.68997297     54.59321332 Au
  atom      11.67061515      1.71012666     54.72363819 Au
  atom      14.59868943      1.72847751     54.79897293 Au
  atom      17.52779727      1.72492763     54.78565084 Au
  atom      20.45500951      1.70338035     54.68893096 Au
  atom      23.37920646      1.68718211     54.55403747 Au
  atom      27.74830941      4.20942985     54.53679214 Au
  atom       4.37144484      4.20991472     54.53352049 Au
  atom       7.28505918      4.21132727     54.52099008 Au
  atom      10.21065264      4.21650098     54.53328554 Au
  atom      13.13863505      4.22767717     54.56354261 Au
  atom      16.06232441      4.23261875     54.57570645 Au
  atom      18.98700378      4.22447109     54.55514583 Au
  atom      21.91566577      4.21428869     54.52682100 Au
  atom      24.83789054      4.21084845     54.52253681 Au
  atom      29.20386910      6.72205761     54.77424836 Au
  atom       5.84074089      6.72970161     54.71313906 Au
  atom       8.75824103      6.74052381     54.59828018 Au
  atom      11.68016547      6.74781756     54.50571340 Au
  atom      14.60208890      6.75237402     54.46569387 Au
  atom      17.52164792      6.75165428     54.47211073 Au
  atom      20.44468460      6.74626360     54.52725843 Au
  atom      23.36504590      6.73785149     54.63219473 Au
  atom      26.28265178      6.72659009     54.73947449 Au
  atom      30.67871771      9.23424918     54.99568669 Au
  atom       7.32574844      9.24902753     54.86526603 Au
  atom      10.23597774      9.26765176     54.66257188 Au
  atom      13.14625530      9.27718285     54.50109146 Au
  atom      16.06122790      9.27887829     54.45511651 Au
  atom      18.97579324      9.27561203     54.53761178 Au
  atom      21.88412454      9.26310171     54.72218339 Au
  atom      24.79889375      9.24382256     54.91345435 Au
  atom      27.73495223      9.23221117     55.01297379 Au
  atom      32.16389667     11.76713043     55.11532979 Au
  atom       8.80525354     11.78159154     54.92790429 Au
  atom      11.70071447     11.80032857     54.66994057 Au
  atom      14.60427977     11.80960134     54.50284503 Au
  atom      17.51702962     11.80828281     54.53292335 Au
  atom      20.41558265     11.79530947     54.74321083 Au
  atom      23.31656355     11.77653745     54.99265785 Au
  atom      26.25134449     11.76479462     55.14932106 Au
  atom      29.20990613     11.76163652     55.19171543 Au
  atom      33.63935150     14.31774273     55.12709057 Au
  atom      10.26368976     14.32719053     54.88763381 Au
  atom      13.15151270     14.34222278     54.61511026 Au
  atom      16.06140518     14.34809610     54.52290077 Au
  atom      18.96488329     14.33795045     54.68374707 Au
  atom      21.85273007     14.32374902     54.96683898 Au
  atom      24.77224130     14.31662370     55.17677281 Au
  atom      27.72688955     14.31518428     55.27755322 Au
  atom      30.69338477     14.31525827     55.26024995 Au
  atom      35.09478363     16.87232934     55.03113451 Au
  atom      11.70434241     16.87459534     54.75201221 Au
  atom      14.60339529     16.88469601     54.53603763 Au
  atom      17.51762435     16.88231148     54.57683386 Au
  atom      20.40962926     16.87282292     54.83788310 Au
  atom      23.31095319     16.87359739     55.09567008 Au
  atom      26.24902421     16.87997597     55.24919213 Au
  atom      29.21011047     16.88304722     55.29042486 Au
  atom      32.16688736     16.87803222     55.21626190 Au
  atom      36.53444955     19.41123498     54.82963287 Au
  atom      13.14873670     19.41065616     54.57016749 Au
  atom      16.06126613     19.41391664     54.48001041 Au
  atom      18.96958186     19.40930875     54.63739768 Au
  atom      21.86685734     19.41481242     54.90655213 Au
  atom      24.78660295     19.43161393     55.10946083 Au
  atom      27.73191373     19.44464063     55.20315112 Au
  atom      30.68454439     19.44203405     55.18693175 Au
  atom      33.62370971     19.42630942     55.06148302 Au
  atom      37.97866779     21.92990615     54.58242951 Au
  atom      14.60507151     21.93231107     54.43585544 Au
  atom      17.51542839     21.93139395     54.46295961 Au
  atom      20.42508807     21.93155456     54.64549233 Au
  atom      23.33815062     21.95080434     54.86288940 Au
  atom      26.26682812     21.97530469     55.00572182 Au
  atom      29.20674098     21.98353024     55.04299834 Au
  atom      32.14463531     21.96903178     54.97453197 Au
  atom      35.06808255     21.94329359     54.80389749 Au
  atom       0.07457733      0.03840480     56.89782402 Au
  atom       2.90682276      0.02347626     56.84930781 Au
  atom       5.74334286      0.05002077     56.93622741 Au
  atom       8.61761921      0.10963499     57.11759298 Au
  atom      11.56269900      0.18279018     57.26809678 Au
  atom      14.56620071      0.23092814     57.33740413 Au
  atom      17.58560265      0.22200683     57.32523635 Au
  atom      20.57592653      0.16220977     57.23242639 Au
  atom      23.49883688      0.08961149     57.06270635 Au
  atom       1.47762508      2.47737781     56.87626143 Au
  atom       4.34835197      2.48454426     56.87961483 Au
  atom       7.22942661      2.53525968     56.92039869 Au
  atom      10.13899764      2.61121631     57.01536254 Au
  atom      13.09121024      2.68545074     57.10552863 Au
  atom      16.07111116      2.71086103     57.13215909 Au
  atom      19.04616585      2.66709903     57.08445034 Au
  atom      21.98576134      2.58781248     56.98455537 Au
  atom      24.88454376      2.51724463     56.90215817 Au
  atom       2.91924331      4.90955336     57.03281107 Au
  atom       5.83348246      4.94467057     56.99210027 Au
  atom       8.74643049      5.01612992     56.93452601 Au
  atom      11.66481527      5.09441745     56.92258242 Au
  atom      14.59600285      5.14615836     56.93684919 Au
  atom      17.53214145      5.13654180     56.93335503 Au
  atom      20.45970524      5.07303591     56.92110169 Au
  atom      23.37519205      4.99372762     56.94839192 Au
  atom      26.28798579      4.92951098     57.00898251 Au
  atom       4.41217507      7.37963204     57.24011597 Au
  atom       7.36217961      7.43559476     57.13793836 Au
  atom      10.27824474      7.51636249     56.98676761 Au
  atom      13.17161207      7.58439586     56.89095254 Au
  atom      16.05669389      7.60610332     56.87036390 Au
  atom      18.94313498      7.56827973     56.90940638 Au
  atom      21.84124964      7.49300770     57.02909559 Au
  atom      24.76678415      7.41566629     57.17559622 Au
  atom      27.72516653      7.37186145     57.25340346 Au
  atom       5.95036125      9.92163935     57.37231442 Au
  atom       8.90676275      9.98179883     57.22667352 Au
  atom      11.79079719     10.05510990     57.01847948 Au
  atom      14.63304083     10.10117911     56.88905175 Au
  atom      17.46637986     10.09280940     56.91103776 Au
  atom      20.31652480     10.03483239     57.07813151 Au
  atom      23.22000086      9.96195819     57.27772902 Au
  atom      26.19672972      9.90974898     57.39804079 Au
  atom      29.21933086      9.89425684     57.42993909 Au
  atom       7.49002046     12.52731698     57.42172279 Au
  atom      10.41447057     12.57741753     57.23593605 Au
  atom      13.24656635     12.62972086     56.99736979 Au
  atom      16.04398987     12.64612050     56.90937541 Au
  atom      18.84598320     12.61694607     57.06145357 Au
  atom      21.70030277     12.56121150     57.29801495 Au
  atom      24.65466811     12.51670894     57.45968268 Au
  atom      27.69240908     12.49414898     57.53539202 Au
  atom      30.75491311     12.49808288     57.52253606 Au
  atom       8.98889112     15.16323446     57.38990808 Au
  atom      11.85982923     15.19111181     57.16389222 Au
  atom      14.65225572     15.20965610     56.94417688 Au
  atom      17.43191467     15.20661282     56.98892821 Au
  atom      20.23912827     15.18249730     57.23762789 Au
  atom      23.14240123     15.15805607     57.43915164 Au
  atom      26.15353030     15.14815258     57.55649237 Au
  atom      29.22718432     15.14594351     57.58796368 Au
  atom      32.28972887     15.14993316     57.53153073 Au
  atom      10.43263727     17.77865429     57.27598200 Au
  atom      13.25852755     17.77273607     57.02514534 Au
  atom      16.04177275     17.76897267     56.91822931 Au
  atom      18.83013684     17.77445720     57.09812711 Au
  atom      21.68201038     17.78151082     57.33733289 Au
  atom      24.64160468     17.79756600     57.49348446 Au
  atom      27.68849693     17.81042608     57.56621257 Au
  atom      30.76153651     17.80802619     57.55409575 Au
  atom      33.78797029     17.79230884     57.45684390 Au
  atom      11.83221423     20.32473404     57.08182957 Au
  atom      14.64491263     20.29951351     56.89652446 Au
  atom      17.44426037     20.30425805     56.93276091 Au
  atom      20.27002310     20.33602052     57.15178483 Au
  atom      23.17744102     20.38251332     57.34734952 Au
  atom      26.17528772     20.42612670     57.45928366 Au
  atom      29.22314641     20.44028085     57.48826721 Au
  atom      32.26198334     20.41538601     57.43528834 Au
  atom      35.23607360     20.36806849     57.29942381 Au
  atom       6.25740983      5.63996038     61.31735326 Mo
  atom       7.91674318      6.55256503     62.84165011 S
  atom       7.87220358      6.62784262     59.79096238 S
  atom       7.88873273      8.48624003     61.36528542 Mo
  atom       9.56749825      9.39446731     62.87109104 S
  atom       9.48035473      9.47096546     59.81738599 S
  atom       9.52177348     11.32297908     61.39022668 Mo
  atom      11.21347037     12.24396399     62.87464602 S
  atom      11.10433145     12.28973040     59.82087238 S
  atom      11.16049114     14.15605588     61.37372786 Mo
  atom      12.85138814     15.09485381     62.84906918 S
  atom      12.75522200     15.10278002     59.79713376 S
  atom      12.80731436     16.99045634     61.32785716 Mo
  atom      14.48110730     17.94281213     62.81864319 S
  atom      14.43822832     17.92708697     59.77257789 S
  atom      14.46254107     19.83269363     61.28786837 Mo
  atom      16.11293075     20.79098552     62.80442840 S
  atom      16.12569791     20.77096091     59.76317929 S
  atom       2.97618564     -0.07641756     61.27494605 Mo
  atom       4.61492619      0.87818473     62.80333230 S
  atom       4.64157966      0.87071874     59.76291726 S
  atom       4.62191698      2.78351887     61.28309448 Mo
  atom       6.26521509      3.71790666     62.81423524 S
  atom       6.26654474      3.75160711     59.76953117 S
  atom       9.54343223      5.62552874     61.28426521 Mo
  atom      11.19697712      6.56475168     62.79773279 S
  atom      11.16728390      6.57977733     59.74783237 S
  atom      11.17449915      8.47421811     61.29025527 Mo
  atom      12.84254079      9.40427117     62.79461106 S
  atom      12.78861160      9.43578960     59.74335871 S
  atom      12.81314928     11.31518242     61.29143192 Mo
  atom      14.48071942     12.24874781     62.79625599 S
  atom      14.44299216     12.27055502     59.74593270 S
  atom      14.46227611     14.15225346     61.28500442 Mo
  atom      16.11066335     15.09443537     62.80907421 S
  atom      16.12948217     15.09866245     59.76032920 S
  atom      16.11945417     16.98992436     61.28758467 Mo
  atom      17.74233646     17.94453861     62.83353531 S
  atom      17.81606914     17.92558723     59.78558662 S
  atom      17.77408171     19.83205510     61.30008878 Mo
  atom      19.38466820     20.79990872     62.84907695 S
  atom      19.47190591     20.75290208     59.80150091 S
  atom       6.27822074     -0.08244224     61.30215025 Mo
  atom       7.89387999      0.89028457     62.83885354 S
  atom       7.95619183      0.83318129     59.79099538 S
  atom       7.91420808      2.77088978     61.29038569 Mo
  atom       9.54679613      3.73083400     62.81409943 S
  atom       9.56348767      3.70200494     59.76558781 S
  atom      12.82977308      5.61076359     61.26602906 Mo
  atom      14.47449764      6.57250429     62.77599492 S
  atom      14.46772342      6.54611160     59.72636505 S
  atom      14.46810977      8.46456750     61.24750407 Mo
  atom      16.11263452      9.40782392     62.77084566 S
  atom      16.12213580      9.42155305     59.72161624 S
  atom      16.11815489     11.31206353     61.25918546 Mo
  atom      17.74260293     12.24781974     62.81097819 S
  atom      17.80817004     12.27501977     59.75927762 S
  atom      17.77428816     14.15307415     61.30200505 Mo
  atom      19.37355462     15.09482755     62.87881328 S
  atom      19.48822032     15.10468060     59.82611064 S
  atom      19.42663342     16.99056573     61.35741076 Mo
  atom      21.01535518     17.95142247     62.93359182 S
  atom      21.13806265     17.91806378     59.88220402 S
  atom      21.07106660     19.82892001     61.38657331 Mo
  atom      22.66629127     20.81160260     62.93997003 S
  atom      22.76456966     20.73060310     59.88863309 S
  atom       9.56636086     -0.09140932     61.36752982 Mo
  atom      11.17761244      0.90253648     62.89375085 S
  atom      11.23600382      0.79765363     59.84145652 S
  atom      11.19852806      2.75662622     61.31460066 Mo
  atom      12.82868061      3.74129969     62.82478867 S
  atom      12.84552942      3.65946045     59.77249856 S
  atom      16.11476180      5.60617923     61.26285669 Mo
  atom      17.75324804      6.57115152     62.77940598 S
  atom      17.76599206      6.55228908     59.72994585 S
  atom      17.76465105      8.46654613     61.25480952 Mo
  atom      19.38319165      9.40158621     62.81285814 S
  atom      19.45194020      9.44560792     59.76035265 S
  atom      19.41989584     11.31721639     61.31575301 Mo
  atom      21.01384274     12.24233332     62.90772808 S
  atom      21.12858084     12.29541742     59.85392716 S
  atom      21.07044293     14.15734529     61.40981042 Mo
  atom      22.65595196     15.09578254     63.00302862 S
  atom      22.77401395     15.11043580     59.94863373 S
  atom      22.71316561     16.99172179     61.47888200 Mo
  atom      24.30731413     17.95693209     63.04567736 S
  atom      24.39874795     17.91306091     59.99001263 S
  atom      24.35032214     19.82588224     61.48642214 Mo
  atom      25.95988348     20.81858279     63.01805797 S
  atom      26.01453447     20.71889017     59.96336340 S
  atom      12.84237107     -0.09772987     61.42918264 Mo
  atom      14.46904171      0.90877537     62.93126450 S
  atom      14.48717916      0.78190422     59.87748754 S
  atom      14.47593877      2.74903851     61.33577663 Mo
  atom      16.11521567      3.74436143     62.83030356 S
  atom      16.11182801      3.64750295     59.77694043 S
  atom      19.40028516      5.61429857     61.26923267 Mo
  atom      21.03051540      6.56132772     62.80887952 S
  atom      21.06692250      6.59404216     59.75864943 S
  atom      21.05626315      8.47795559     61.31043240 Mo
  atom      22.66186797      9.39176877     62.89714257 S
  atom      22.74800413      9.47979584     59.84378165 S
  atom      22.70691135     11.32513635     61.42210395 Mo
  atom      24.30370090     12.23890132     63.01848986 S
  atom      24.39352719     12.30949295     59.96346570 S
  atom      24.34909606     14.16072417     61.52633849 Mo
  atom      25.95524693     15.09760373     63.09816413 S
  atom      26.01719856     15.11312208     60.03919158 S
  atom      25.98612361     16.99234123     61.57045284 Mo
  atom      27.60798392     17.95967058     63.10636458 S
  atom      27.63352570     17.91188136     60.04682766 S
  atom      27.62027440     19.82502386     61.54193161 Mo
  atom      29.25865926     20.82037666     63.04122201 S
  atom      29.24908128     20.71649739     59.98513462 S
  atom      16.11257446     -0.09923587     61.44833723 Mo
  atom      17.76320847      0.90760082     62.92420491 S
  atom      17.73108540      0.78437358     59.87081129 S
  atom      17.75108036      2.75025958     61.33162332 Mo
  atom      19.40059014      3.73892321     62.82126838 S
  atom      19.38107199      3.66910468     59.76975762 S
  atom      22.68661048      5.63017702     61.29320150 Mo
  atom      24.31345037      6.54946571     62.85551390 S
  atom      24.35606903      6.63913907     59.80471560 S
  atom      24.33980054      8.48880973     61.38659836 Mo
  atom      25.95562632      9.38607882     62.97295875 S
  atom      26.00727622      9.50020853     59.92012970 S
  atom      25.98289813     11.33023812     61.50988575 Mo
  atom      27.60659762     12.23909208     63.08011078 S
  atom      27.63228027     12.31484404     60.02238915 S
  atom      27.61979890     14.16255211     61.58807571 Mo
  atom      29.25934227     15.09849112     63.12483855 S
  atom      29.24871143     15.11385414     60.06418483 S
  atom      29.25391086     16.99272639     61.59596204 Mo
  atom      30.90991549     17.95910514     63.09583531 S
  atom      30.86394565     17.91189462     60.03705526 S
  atom      30.88795778     19.82496097     61.53223269 Mo
  atom      32.55642313     20.81719548     62.99991547 S
  atom      32.48556251     20.72115413     59.94608903 S
  atom      19.38414719     -0.09638259     61.41438482 Mo
  atom      21.05269379      0.89964917     62.87782506 S
  atom      20.98853686      0.80630069     59.82623627 S
  atom      21.03006077      2.76047742     61.30653433 Mo
  atom      22.68144095      3.72686147     62.81286502 S
  atom      22.66911709      3.71718656     59.76573173 S
  atom      25.97203043      5.64296949     61.32604785 Mo
  atom      27.60864000      6.54296017     62.88874518 S
  atom      27.62333183      6.66161247     59.83914878 S
  atom      27.61720425      8.49433188     61.43519248 Mo
  atom      29.25934285      9.38503510     62.99618011 S
  atom      29.25012979      9.50511020     59.94321773 S
  atom      29.25450612     11.33168784     61.53534626 Mo
  atom      30.91223889     12.23890374     63.06937144 S
  atom      30.86623890     12.31400728     60.01219644 S
  atom      30.88867911     14.16211076     61.57749218 Mo
  atom      32.56274083     15.09711792     63.07689011 S
  atom      32.48143184     15.11259765     60.01923063 S
  atom      32.52282877     16.99224671     61.55004354 Mo
  atom      34.20934083     17.95584128     63.01663166 S
  atom      34.10325029     17.91419762     59.96248228 S
  atom      34.15966933     19.82684395     61.46015603 Mo
  atom      35.84739351     20.80845649     62.91210085 S
  atom      35.74531105     20.73608737     59.86163259 S
  atom      22.66256284     -0.08899109     61.34670802 Mo
  atom      24.33390562      0.88625278     62.82552550 S
  atom      24.27927669      0.84545718     59.78010330 S
  atom      24.31724333      2.77524823     61.28663222 Mo
  atom      25.96541508      3.71530026     62.81591515 S
  atom      25.96645041      3.76240535     59.77175461 S
  atom      29.25656393      5.64624203     61.33827795 Mo
  atom       4.62508169      6.54419050     62.88262521 S
  atom       4.59956794      6.65800273     59.83257485 S
  atom      30.89316733      8.49343957     61.42642690 Mo
  atom       6.27804909      9.38703487     62.95509895 S
  atom       6.21226307      9.49593099     59.90229405 S
  atom      32.52683251     11.32906608     61.48983809 Mo
  atom       7.92927969     12.23951853     62.98946788 S
  atom       7.82634621     12.30654346     59.93529031 S
  atom      34.16080642     14.16012835     61.49653626 Mo
  atom       9.57536812     15.09539156     62.96694955 S
  atom       9.44988820     15.10902478     59.91354728 S
  atom      35.79839905     16.99141723     61.44381516 Mo
  atom      11.21283840     17.94942954     62.89952213 S
  atom      11.09447021     17.92032947     59.84861728 S
  atom      37.44369722     19.82985495     61.35682557 Mo
  atom      12.84166382     20.79665774     62.82976292 S
  atom      12.77129267     20.76020355     59.78418149 S
  atom      25.95554825     -0.07978767     61.28970777 Mo
  atom       1.33099336      0.87622956     62.79914999 S
  atom       1.31643298      0.87654687     59.75942909 S
  atom      27.61047488      2.78499270     61.28293419 Mo
  atom       2.97437083      3.71153311     62.81911383 S
  atom       2.97365938      3.77600491     59.77537823 S
  #
  # What follows is the current estimated Hessian matrix constructed by the BFGS algorithm.
  # This is NOT the true Hessian matrix of the system.
  # If you do not want this information here, switch it off using the "hessian_to_restart_geometry" keyword.
  #
  
  -----------------------------------------------------------------------
  Completed first pass over input file geometry.in .
  -----------------------------------------------------------------------
  

  Basic array size parameters:
  | Number of species                 :        3
  | Number of atoms                   :      516
  | Number of lattice vectors         :        3
  | Max. basis fn. angular momentum   :        4
  | Max. atomic/ionic basis occupied n:        6
  | Max. number of basis fn. types    :        3
  | Max. radial fns per species/type  :       14
  | Max. logarithmic grid size        :     1488
  | Max. radial integration grid size :      147
  | Max. angular integration grid size:      434
  | Max. angular grid division number :        8
  | Radial grid for Hartree potential :     1488
  | Number of spin channels           :        1
  | Cube type output requested        :        1

------------------------------------------------------------
          Reading file control.in.
------------------------------------------------------------
  XC: Using PBE gradient-corrected functionals.
  Spin treatment: No spin polarisation.
  Charge =   0.000000E+00: Neutral system requested explicitly.
  Scalar relativistic treatment of kinetic energy: on-site free-atom approximation to ZORA.
  Storing only matrices local to each thread.
  Occupation type: Gaussian broadening, width =   0.150000E+00 eV.
  Found k-point grid:         4         4         1
  Number of empty states per atom:       18
  Using dipole correction.
  Using libMBD for calculating MBD and TS energies
  | STM width in eV:      -2.0000
  | Cube output options:
 * Cube origin was not provided following cube request. Will be using default value.
 * Cube edges were not provided following cube request. Defaults will be used.
 Standard cube format requested.

 
  Reading configuration options for species S                   .
  | Found nuclear charge :  16.0000
  | Found atomic mass :    32.0650000000000      amu
  | Found l_max for Hartree potential  :   6
  | Found cutoff potl. onset [A], width [A], scale factor :    4.00000    2.00000    1.00000
  | Threshold for basis-dependent cutoff potential is   0.100000E-03
  | Found data for basic radial integration grid :    44 points, outermost radius =    7.000 A
  | Found multiplier for basic radial grid :   2
  | Found angular grid specification: user-specified.
  | Specified grid contains     5 separate shells.
  | Check grid settings after all constraints further below.
  | Found free-atom valence shell :  3 s   2.000
  | Found free-atom valence shell :  3 p   4.000
  | Found free-ion valence shell :  3 s   1.000
  | Found free-ion valence shell :  3 p   3.000
  | Found ionic basis function :  3 d , default cutoff radius.
  | Found hydrogenic basis function :  2 p   1.800
  | Found hydrogenic basis function :  4 f   7.000
  | Found ionic basis function :  3 s , default cutoff radius.
  | Found hydrogenic basis function :  4 d   6.200
  | Found hydrogenic basis function :  5 g  10.800
  Species S                   : Missing cutoff potential type.
  Defaulting to exp(1/x)/(1-x)^2 type cutoff potential.
  Species S : No 'logarithmic' tag. Using default grid for free atom:
  | Default logarithmic grid data [bohr] : 0.1000E-03 0.1000E+03 0.1012E+01
  | Will include ionic basis functions of  2.0-fold positive S                    ion.
  Species S : On-site basis accuracy parameter (for Gram-Schmidt orthonormalisation) not specified.
  Using default value basis_acc =  0.1000000E-03.
  Species S                   : Using default innermost maximum threshold i_radial=  2 for radial functions.
  Species S                   : Default cutoff onset for free atom density etc. : 0.40000000E+01 AA.
  Species S                   : Basic radial grid will be enhanced according to radial_multiplier =   2, to contain    89 grid points.
 
  Reading configuration options for species Mo                  .
  | Found nuclear charge :  42.0000
  | Found atomic mass :    95.9400000000000      amu
  | Found l_max for Hartree potential  :   6
  | Found cutoff potl. onset [A], width [A], scale factor :    4.00000    2.00000    1.00000
  | Threshold for basis-dependent cutoff potential is   0.100000E-03
  | Found data for basic radial integration grid :    59 points, outermost radius =    7.000 A
  | Found multiplier for basic radial grid :   2
  | Found angular grid specification: user-specified.
  | Specified grid contains     6 separate shells.
  | Check grid settings after all constraints further below.
  | Found free-atom valence shell :  5 s   1.000
  | Found free-atom valence shell :  4 p   6.000
  | Found free-atom valence shell :  4 d   5.000
  | Found free-ion valence shell :  5 s   0.000
  | Found free-ion valence shell :  4 p   6.000
  | Found free-ion valence shell :  4 d   4.000
  | Found hydrogenic basis function :  4 f   8.400
  | Found hydrogenic basis function :  3 d   2.800
  | Found ionic basis function :  5 p , default cutoff radius.
  | Found hydrogenic basis function :  5 g  12.000
  | Found ionic basis function :  5 s , default cutoff radius.
  Species Mo                  : Missing cutoff potential type.
  Defaulting to exp(1/x)/(1-x)^2 type cutoff potential.
  Species Mo: No 'logarithmic' tag. Using default grid for free atom:
  | Default logarithmic grid data [bohr] : 0.1000E-03 0.1000E+03 0.1012E+01
  | Will include ionic basis functions of  2.0-fold positive Mo                   ion.
  Species Mo: On-site basis accuracy parameter (for Gram-Schmidt orthonormalisation) not specified.
  Using default value basis_acc =  0.1000000E-03.
  Species Mo                  : Using default innermost maximum threshold i_radial=  2 for radial functions.
  Species Mo                  : Default cutoff onset for free atom density etc. : 0.40000000E+01 AA.
  Species Mo                  : Basic radial grid will be enhanced according to radial_multiplier =   2, to contain   119 grid points.
 
  Reading configuration options for species Au                  .
  | Found nuclear charge :  79.0000
  | Found atomic mass :    196.966569000000      amu
  | Found l_max for Hartree potential  :   6
  | Found cutoff potl. onset [A], width [A], scale factor :    4.00000    2.00000    1.00000
  | Threshold for basis-dependent cutoff potential is   0.100000E-03
  | Found data for basic radial integration grid :    73 points, outermost radius =    7.000 A
  | Found multiplier for basic radial grid :   2
  | Found angular grid specification: user-specified.
  | Specified grid contains     6 separate shells.
  | Check grid settings after all constraints further below.
  | Found free-atom valence shell :  6 s   1.000
  | Found free-atom valence shell :  5 p   6.000
  | Found free-atom valence shell :  5 d  10.000
  | Found free-atom valence shell :  4 f  14.000
  | Found free-ion valence shell :  6 s   0.000
  | Found free-ion valence shell :  5 p   6.000
  | Found free-ion valence shell :  5 d   9.000
  | Found free-ion valence shell :  4 f  14.000
  | Found ionic basis function :  6 p , default cutoff radius.
  | Found hydrogenic basis function :  4 f   7.400
  | Found ionic basis function :  6 s , default cutoff radius.
  | Found hydrogenic basis function :  5 g  10.000
  | Found hydrogenic basis function :  3 d   2.500
  Species Au                  : Missing cutoff potential type.
  Defaulting to exp(1/x)/(1-x)^2 type cutoff potential.
  Species Au: No 'logarithmic' tag. Using default grid for free atom:
  | Default logarithmic grid data [bohr] : 0.1000E-03 0.1000E+03 0.1012E+01
  | Will include ionic basis functions of  2.0-fold positive Au                   ion.
  Species Au: On-site basis accuracy parameter (for Gram-Schmidt orthonormalisation) not specified.
  Using default value basis_acc =  0.1000000E-03.
  Species Au                  : Using default innermost maximum threshold i_radial=  2 for radial functions.
  Species Au                  : Default cutoff onset for free atom density etc. : 0.40000000E+01 AA.
  Species Au                  : Basic radial grid will be enhanced according to radial_multiplier =   2, to contain   147 grid points.
 
  Finished reading input file 'control.in'.
 
------------------------------------------------------------


------------------------------------------------------------
          Reading geometry description geometry.in.
------------------------------------------------------------
  Vacuum level in z-axis :   0.283659E+01
  | The smallest distance between any two atoms is         2.42183349 AA.
  | The first atom of this pair is atom number                    411 .
  | The second atom of this pair is atom number                   433 .
  | Wigner-Seitz cell of the first atom image           0     0     0 .
  | (The Wigner-Seitz cell of the second atom is 0 0 0  by definition.)

  Symmetry information by spglib:
  | Precision set to  0.1E-04
  | Number of Operations  : 1
  | Space group           : 1
  | International         : P1
  | Schoenflies           : C1^1
  Input structure read successfully.
  The structure contains      516 atoms,  and a total of      30332.000 electrons.

  Input geometry:
  | Unit cell:
  |       26.28331574        0.00000000        0.00000000
  |       13.14165787       22.76201912        0.00000000
  |        0.00000000        0.00000000      107.15341248
  | Atomic structure:
  |       Atom                x [A]            y [A]            z [A]
  |    1: Species Au           -0.03181074       -0.01438289       49.74003622
  |    2: Species Au            2.92603573        0.00014049       49.69767476
  |    3: Species Au            5.88063049       -0.02398726       49.77144808
  |    4: Species Au            8.81399772       -0.05317933       49.90539675
  |    5: Species Au           11.72259441       -0.06190439       50.02810412
  |    6: Species Au           14.61400846       -0.05988750       50.09550825
  |    7: Species Au           17.50046517       -0.06059185       50.08347395
  |    8: Species Au           20.39575741       -0.06129386       49.99678995
  |    9: Species Au           23.31096798       -0.04653892       49.86521229
  |   10: Species Au            1.45962401        2.56042408       49.72449629
  |   11: Species Au            4.38150204        2.55368950       49.73382070
  |   12: Species Au            7.30511986        2.51379014       49.79271463
  |   13: Species Au           10.22913791        2.47988514       49.85961549
  |   14: Species Au           13.14798075        2.46826619       49.90361968
  |   15: Species Au           16.06082832        2.46696985       49.91524656
  |   16: Species Au           18.97483284        2.46992429       49.89366755
  |   17: Species Au           21.89544402        2.48731415       49.84144319
  |   18: Species Au           24.81985101        2.52637830       49.77255119
  |   19: Species Au            2.91691412        5.13816667       49.83571876
  |   20: Species Au            5.81654965        5.11137764       49.83016486
  |   21: Species Au            8.72733582        5.06380004       49.82233530
  |   22: Species Au           11.65467917        5.02905104       49.81351120
  |   23: Species Au           14.59402465        5.01711627       49.80540218
  |   24: Species Au           17.53620599        5.01883234       49.80707860
  |   25: Species Au           20.47281037        5.03658730       49.81639143
  |   26: Species Au           23.39543079        5.07764262       49.82431090
  |   27: Species Au           26.30212644        5.12290372       49.83219792
  |   28: Species Au            4.36298840        7.68081434       49.99938605
  |   29: Species Au            7.25935593        7.64964522       49.92655511
  |   30: Species Au           10.17145271        7.61020634       49.84107839
  |   31: Species Au           13.10966356        7.58650500       49.78221182
  |   32: Species Au           16.06777561        7.58170626       49.76585538
  |   33: Species Au           19.02210748        7.59102424       49.79581271
  |   34: Species Au           21.95266023        7.62086273       49.86445265
  |   35: Species Au           24.85864640        7.66087996       49.95159010
  |   36: Species Au           27.75321406        7.68507518       50.01075448
  |   37: Species Au            5.81122106       10.18848875       50.13697078
  |   38: Species Au            8.71013220       10.16671059       49.98682879
  |   39: Species Au           11.63138540       10.14879006       49.84661255
  |   40: Species Au           14.58509450       10.14504513       49.77800836
  |   41: Species Au           17.55122883       10.14521052       49.78990934
  |   42: Species Au           20.49627498       10.15261748       49.88091504
  |   43: Species Au           23.40908719       10.17357852       50.03327123
  |   44: Species Au           26.30550533       10.19303537       50.16895866
  |   45: Species Au           29.19998727       10.19871249       50.20910199
  |   46: Species Au            7.25557641       12.68208589       50.19736558
  |   47: Species Au           10.15946061       12.67600177       49.99251157
  |   48: Species Au           13.09840788       12.68368853       49.84297605
  |   49: Species Au           16.07010425       12.68997513       49.80306080
  |   50: Species Au           19.03544125       12.68028889       49.87478147
  |   51: Species Au           21.96252925       12.67669774       50.05151472
  |   52: Species Au           24.86115890       12.68516887       50.24852975
  |   53: Species Au           27.75370231       12.69275519       50.35445829
  |   54: Species Au           30.64572929       12.69133619       50.33603860
  |   55: Species Au            8.69384095       15.17789271       50.15815433
  |   56: Species Au           11.61158914       15.18960452       49.94285682
  |   57: Species Au           14.57764832       15.21097119       49.82618429
  |   58: Species Au           17.56409908       15.20613352       49.84639747
  |   59: Species Au           20.51641034       15.18410835       49.99922561
  |   60: Species Au           23.42330944       15.17841873       50.22192292
  |   61: Species Au           26.31266983       15.18434280       50.38588694
  |   62: Species Au           29.19875438       15.18685392       50.43192621
  |   63: Species Au           32.08531552       15.18240219       50.34943183
  |   64: Species Au           10.13779925       17.68333618       50.03393581
  |   65: Species Au           13.08253959       17.70828409       49.85228056
  |   66: Species Au           16.07319872       17.72176342       49.79792691
  |   67: Species Au           19.05446883       17.70001903       49.89497731
  |   68: Species Au           21.98370530       17.67989973       50.09812554
  |   69: Species Au           24.87661585       17.68035115       50.29608484
  |   70: Species Au           27.75802638       17.68514346       50.40034813
  |   71: Species Au           30.63778334       17.68404766       50.38208257
  |   72: Species Au           33.52099780       17.67885010       50.24532493
  |   73: Species Au           11.60878443       20.20325781       49.87060693
  |   74: Species Au           14.57747355       20.22925502       49.75145179
  |   75: Species Au           17.56449357       20.22351811       49.77420668
  |   76: Species Au           20.52061706       20.19588796       49.92300781
  |   77: Species Au           23.43289525       20.18446667       50.10989968
[...]
  | Current stacksize for task 106: unlimited
  | Current stacksize for task 107: unlimited
  | Current stacksize for task 108: unlimited
  | Current stacksize for task 109: unlimited
  | Current stacksize for task 110: unlimited
  | Current stacksize for task 111: unlimited
  | Current stacksize for task 112: unlimited
  | Current stacksize for task 113: unlimited
  | Current stacksize for task 114: unlimited
  | Current stacksize for task 115: unlimited
  | Current stacksize for task 116: unlimited
  | Current stacksize for task 117: unlimited
  | Current stacksize for task 118: unlimited
  | Current stacksize for task 119: unlimited
  | Current stacksize for task 120: unlimited
  | Current stacksize for task 121: unlimited
  | Current stacksize for task 122: unlimited
  | Current stacksize for task 123: unlimited
  | Current stacksize for task 124: unlimited
  | Current stacksize for task 125: unlimited
  | Current stacksize for task 126: unlimited
  | Current stacksize for task 127: unlimited
  | Current stacksize for task 128: unlimited
  | Current stacksize for task 129: unlimited
  | Current stacksize for task 130: unlimited
  | Current stacksize for task 131: unlimited
  | Current stacksize for task 132: unlimited
  | Current stacksize for task 133: unlimited
  | Current stacksize for task 134: unlimited
  | Current stacksize for task 135: unlimited
  | Current stacksize for task 136: unlimited
  | Current stacksize for task 137: unlimited
  | Current stacksize for task 138: unlimited
  | Current stacksize for task 139: unlimited
  | Current stacksize for task 140: unlimited
  | Current stacksize for task 141: unlimited
  | Current stacksize for task 142: unlimited
  | Current stacksize for task 143: unlimited
  | Current stacksize for task 144: unlimited
  | Current stacksize for task 145: unlimited
  | Current stacksize for task 146: unlimited
  | Current stacksize for task 147: unlimited
  | Current stacksize for task 148: unlimited
  | Current stacksize for task 149: unlimited
  | Current stacksize for task 150: unlimited
  | Current stacksize for task 151: unlimited
  | Current stacksize for task 152: unlimited
  | Current stacksize for task 153: unlimited
  | Current stacksize for task 154: unlimited
  | Current stacksize for task 155: unlimited
  | Current stacksize for task 156: unlimited
  | Current stacksize for task 157: unlimited
  | Current stacksize for task 158: unlimited
  | Current stacksize for task 159: unlimited
  | Current stacksize for task 160: unlimited
  | Current stacksize for task 161: unlimited
  | Current stacksize for task 162: unlimited
  | Current stacksize for task 163: unlimited
  | Current stacksize for task 164: unlimited
  | Current stacksize for task 165: unlimited
  | Current stacksize for task 166: unlimited
  | Current stacksize for task 167: unlimited
  | Current stacksize for task 168: unlimited
  | Current stacksize for task 169: unlimited
  | Current stacksize for task 170: unlimited
  | Current stacksize for task 171: unlimited
  | Current stacksize for task 172: unlimited
  | Current stacksize for task 173: unlimited
  | Current stacksize for task 174: unlimited
  | Current stacksize for task 175: unlimited
  | Current stacksize for task 176: unlimited
  | Current stacksize for task 177: unlimited
  | Current stacksize for task 178: unlimited
  | Current stacksize for task 179: unlimited
  | Current stacksize for task 180: unlimited
  | Current stacksize for task 181: unlimited
  | Current stacksize for task 182: unlimited
  | Current stacksize for task 183: unlimited
  | Current stacksize for task 184: unlimited
  | Current stacksize for task 185: unlimited
  | Current stacksize for task 186: unlimited
  | Current stacksize for task 187: unlimited
  | Current stacksize for task 188: unlimited
  | Current stacksize for task 189: unlimited
  | Current stacksize for task 190: unlimited
  | Current stacksize for task 191: unlimited
  | Current stacksize for task 192: unlimited
  | Current stacksize for task 193: unlimited
  | Current stacksize for task 194: unlimited
  | Current stacksize for task 195: unlimited
  | Current stacksize for task 196: unlimited
  | Current stacksize for task 197: unlimited
  | Current stacksize for task 198: unlimited
  | Current stacksize for task 199: unlimited
  | Current stacksize for task 200: unlimited
  | Current stacksize for task 201: unlimited
  | Current stacksize for task 202: unlimited
  | Current stacksize for task 203: unlimited
  | Current stacksize for task 204: unlimited
  | Current stacksize for task 205: unlimited
  | Current stacksize for task 206: unlimited
  | Current stacksize for task 207: unlimited
  | Current stacksize for task 208: unlimited
  | Current stacksize for task 209: unlimited
  | Current stacksize for task 210: unlimited
  | Current stacksize for task 211: unlimited
  | Current stacksize for task 212: unlimited
  | Current stacksize for task 213: unlimited
  | Current stacksize for task 214: unlimited
  | Current stacksize for task 215: unlimited
  | Current stacksize for task 216: unlimited
  | Current stacksize for task 217: unlimited
  | Current stacksize for task 218: unlimited
  | Current stacksize for task 219: unlimited
  | Current stacksize for task 220: unlimited
  | Current stacksize for task 221: unlimited
  | Current stacksize for task 222: unlimited
  | Current stacksize for task 223: unlimited
  | Current stacksize for task 224: unlimited
  | Current stacksize for task 225: unlimited
  | Current stacksize for task 226: unlimited
  | Current stacksize for task 227: unlimited
  | Current stacksize for task 228: unlimited
  | Current stacksize for task 229: unlimited
  | Current stacksize for task 230: unlimited
  | Current stacksize for task 231: unlimited
  | Current stacksize for task 232: unlimited
  | Current stacksize for task 233: unlimited
  | Current stacksize for task 234: unlimited
  | Current stacksize for task 235: unlimited
  | Current stacksize for task 236: unlimited
  | Current stacksize for task 237: unlimited
  | Current stacksize for task 238: unlimited
  | Current stacksize for task 239: unlimited
  | Current stacksize for task 240: unlimited
  | Current stacksize for task 241: unlimited
  | Current stacksize for task 242: unlimited
  | Current stacksize for task 243: unlimited
  | Current stacksize for task 244: unlimited
  | Current stacksize for task 245: unlimited
  | Current stacksize for task 246: unlimited
  | Current stacksize for task 247: unlimited
  | Current stacksize for task 248: unlimited
  | Current stacksize for task 249: unlimited
  | Current stacksize for task 250: unlimited
  | Current stacksize for task 251: unlimited
  | Current stacksize for task 252: unlimited
  | Current stacksize for task 253: unlimited
  | Current stacksize for task 254: unlimited
  | Current stacksize for task 255: unlimited
  | Current stacksize for task 256: unlimited
  | Current stacksize for task 257: unlimited
  | Current stacksize for task 258: unlimited
  | Current stacksize for task 259: unlimited
  | Current stacksize for task 260: unlimited
  | Current stacksize for task 261: unlimited
  | Current stacksize for task 262: unlimited
  | Current stacksize for task 263: unlimited
  | Current stacksize for task 264: unlimited
  | Current stacksize for task 265: unlimited
  | Current stacksize for task 266: unlimited
  | Current stacksize for task 267: unlimited
  | Current stacksize for task 268: unlimited
  | Current stacksize for task 269: unlimited
  | Current stacksize for task 270: unlimited
  | Current stacksize for task 271: unlimited
  | Current stacksize for task 272: unlimited
  | Current stacksize for task 273: unlimited
  | Current stacksize for task 274: unlimited
  | Current stacksize for task 275: unlimited
  | Current stacksize for task 276: unlimited
  | Current stacksize for task 277: unlimited
  | Current stacksize for task 278: unlimited
  | Current stacksize for task 279: unlimited
  | Current stacksize for task 280: unlimited
  | Current stacksize for task 281: unlimited
  | Current stacksize for task 282: unlimited
  | Current stacksize for task 283: unlimited
  | Current stacksize for task 284: unlimited
  | Current stacksize for task 285: unlimited
  | Current stacksize for task 286: unlimited
  | Current stacksize for task 287: unlimited
  | Current stacksize for task 288: unlimited
  | Current stacksize for task 289: unlimited
  | Current stacksize for task 290: unlimited
  | Current stacksize for task 291: unlimited
  | Current stacksize for task 292: unlimited
  | Current stacksize for task 293: unlimited
  | Current stacksize for task 294: unlimited
  | Current stacksize for task 295: unlimited
  | Current stacksize for task 296: unlimited
  | Current stacksize for task 297: unlimited
  | Current stacksize for task 298: unlimited
  | Current stacksize for task 299: unlimited
  | Current stacksize for task 300: unlimited
  | Current stacksize for task 301: unlimited
  | Current stacksize for task 302: unlimited
  | Current stacksize for task 303: unlimited
  | Current stacksize for task 304: unlimited
  | Current stacksize for task 305: unlimited
  | Current stacksize for task 306: unlimited
  | Current stacksize for task 307: unlimited
  | Current stacksize for task 308: unlimited
  | Current stacksize for task 309: unlimited
  | Current stacksize for task 310: unlimited
  | Current stacksize for task 311: unlimited
  | Current stacksize for task 312: unlimited
  | Current stacksize for task 313: unlimited
  | Current stacksize for task 314: unlimited
  | Current stacksize for task 315: unlimited
  | Current stacksize for task 316: unlimited
  | Current stacksize for task 317: unlimited
  | Current stacksize for task 318: unlimited
  | Current stacksize for task 319: unlimited
  | Current stacksize for task 320: unlimited
  | Current stacksize for task 321: unlimited
  | Current stacksize for task 322: unlimited
  | Current stacksize for task 323: unlimited
  | Current stacksize for task 324: unlimited
  | Current stacksize for task 325: unlimited
  | Current stacksize for task 326: unlimited
  | Current stacksize for task 327: unlimited
  | Current stacksize for task 328: unlimited
  | Current stacksize for task 329: unlimited
  | Current stacksize for task 330: unlimited
  | Current stacksize for task 331: unlimited
  | Current stacksize for task 332: unlimited
  | Current stacksize for task 333: unlimited
  | Current stacksize for task 334: unlimited
  | Current stacksize for task 335: unlimited
  | Current stacksize for task 336: unlimited
  | Current stacksize for task 337: unlimited
  | Current stacksize for task 338: unlimited
  | Current stacksize for task 339: unlimited
  | Current stacksize for task 340: unlimited
  | Current stacksize for task 341: unlimited
  | Current stacksize for task 342: unlimited
  | Current stacksize for task 343: unlimited
  | Current stacksize for task 344: unlimited
  | Current stacksize for task 345: unlimited
  | Current stacksize for task 346: unlimited
  | Current stacksize for task 347: unlimited
  | Current stacksize for task 348: unlimited
  | Current stacksize for task 349: unlimited
  | Current stacksize for task 350: unlimited
  | Current stacksize for task 351: unlimited
  | Current stacksize for task 352: unlimited
  | Current stacksize for task 353: unlimited
  | Current stacksize for task 354: unlimited
  | Current stacksize for task 355: unlimited
  | Current stacksize for task 356: unlimited
  | Current stacksize for task 357: unlimited
  | Current stacksize for task 358: unlimited
  | Current stacksize for task 359: unlimited
  | Current stacksize for task 360: unlimited
  | Current stacksize for task 361: unlimited
  | Current stacksize for task 362: unlimited
  | Current stacksize for task 363: unlimited
  | Current stacksize for task 364: unlimited
  | Current stacksize for task 365: unlimited
  | Current stacksize for task 366: unlimited
  | Current stacksize for task 367: unlimited
  | Current stacksize for task 368: unlimited
  | Current stacksize for task 369: unlimited
  | Current stacksize for task 370: unlimited
  | Current stacksize for task 371: unlimited
  | Current stacksize for task 372: unlimited
  | Current stacksize for task 373: unlimited
  | Current stacksize for task 374: unlimited
  | Current stacksize for task 375: unlimited
  | Current stacksize for task 376: unlimited
  | Current stacksize for task 377: unlimited
  | Current stacksize for task 378: unlimited
  | Current stacksize for task 379: unlimited
  | Current stacksize for task 380: unlimited
  | Current stacksize for task 381: unlimited
  | Current stacksize for task 382: unlimited
  | Current stacksize for task 383: unlimited
  | Current stacksize for task 384: unlimited
  | Current stacksize for task 385: unlimited
  | Current stacksize for task 386: unlimited
  | Current stacksize for task 387: unlimited
  | Current stacksize for task 388: unlimited
  | Current stacksize for task 389: unlimited
  | Current stacksize for task 390: unlimited
  | Current stacksize for task 391: unlimited
  | Current stacksize for task 392: unlimited
  | Current stacksize for task 393: unlimited
  | Current stacksize for task 394: unlimited
  | Current stacksize for task 395: unlimited
  | Current stacksize for task 396: unlimited
  | Current stacksize for task 397: unlimited
  | Current stacksize for task 398: unlimited
  | Current stacksize for task 399: unlimited
  | Current stacksize for task 400: unlimited
  | Current stacksize for task 401: unlimited
  | Current stacksize for task 402: unlimited
  | Current stacksize for task 403: unlimited
  | Current stacksize for task 404: unlimited
  | Current stacksize for task 405: unlimited
  | Current stacksize for task 406: unlimited
  | Current stacksize for task 407: unlimited
  | Current stacksize for task 408: unlimited
  | Current stacksize for task 409: unlimited
  | Current stacksize for task 410: unlimited
  | Current stacksize for task 411: unlimited
  | Current stacksize for task 412: unlimited
  | Current stacksize for task 413: unlimited
  | Current stacksize for task 414: unlimited
  | Current stacksize for task 415: unlimited
  | Current stacksize for task 416: unlimited
  | Current stacksize for task 417: unlimited
  | Current stacksize for task 418: unlimited
  | Current stacksize for task 419: unlimited
  | Current stacksize for task 420: unlimited
  | Current stacksize for task 421: unlimited
  | Current stacksize for task 422: unlimited
  | Current stacksize for task 423: unlimited
  | Current stacksize for task 424: unlimited
  | Current stacksize for task 425: unlimited
  | Current stacksize for task 426: unlimited
  | Current stacksize for task 427: unlimited
  | Current stacksize for task 428: unlimited
  | Current stacksize for task 429: unlimited
  | Current stacksize for task 430: unlimited
  | Current stacksize for task 431: unlimited
 
  Consistency checks for the contents of control.in are next.
 
  MPI_IN_PLACE appears to work with this MPI implementation.
  | Keeping use_mpi_in_place .true. (see manual).
  Target number of points in a grid batch is not set. Defaulting to  100
  Method for grid partitioning is not set. Defaulting to parallel hash+maxmin partitioning.
  Batch size limit is not set. Defaulting to    200
  By default, will store active basis functions for each batch.
  If in need of memory, prune_basis_once .false. can be used to disable this option.
  communication_type for Hartree potential was not specified.
  Defaulting to calc_hartree .
  Defaulting to Pulay charge density mixer.
  Pulay mixer: Number of relevant iterations not set.
  Defaulting to    8 iterations.
  Pulay mixer: Number of initial linear mixing iterations not set.
  Defaulting to    0 iterations.
  Work space size for distributed Hartree potential not set.
  Defaulting to   0.200000E+03 MB.
  Mixing parameter for charge density mixing has not been set.
  Using default: charge_mix_param =     0.0500.
  The mixing parameter will be adjusted in iteration number     2 of the first full s.c.f. cycle only.
  Algorithm-dependent basis array size parameters:
  | n_max_pulay                         :        8
  Maximum number of self-consistency iterations not provided.
  Presetting  1000 iterations.
  Presetting      1001 iterations before the initial mixing cycle
  is restarted anyway using the sc_init_iter criterion / keyword.
  Presetting a factor      1.000 between actual scf density residual
  and density convergence criterion sc_accuracy_rho below which sc_init_iter
  takes no effect.
 * No s.c.f. convergence criteria (sc_accuracy_*) were provided in control.in.
 * The run will proceed with a reasonable default guess, but please check whether.
 * the s.c.f. cycles seem to take too much or too little time.
  Calculation of forces was not defined in control.in. No forces will be calculated.
  Geometry relaxation not requested: no relaxation will be performed.
 * Notice: The s.c.f. convergence criterion sc_accuracy_rho was not provided.
 * We used to stop in this case, and ask the user to provide reasonable
 * scf convergence criteria. However, this led some users to employ criteria
 * that led to extremely long run times, e.g., for simple relaxation.
 * We now preset a default value for sc_accuracy_rho if it is not set.
 * You may still wish to check if this setting is too tight or too loose for your needs.
 * Based on n_atoms and forces and force-correction status, FHI-aims chose sc_accuracy_rho =  0.927362E-05 .
  No accuracy limit for integral partition fn. given. Defaulting to  0.1000E-14.
  No threshold value for u(r) in integrations given. Defaulting to  0.1000E-05.
  No accuracy for occupation numbers given. Defaulting to  0.1000E-12.
  No threshold value for occupation numbers given. Defaulting to  0.0000E+00.
  No accuracy for fermi level given. Defaulting to  0.1000E-19.
  Maximum # of iterations to find E_F not set. Defaulting to  200.
  Preferred method for the eigenvalue solver ('KS_method') not specified in 'control.in'.
  Calling BLACS routine to test compilation state
  Since ScaLAPACK support is enabled, defaulting to ELPA (via ELSI).
  Will not use alltoall communication since running on < 1024 CPUs.
  Threshold for basis singularities not set.
  Default threshold for basis singularities:  0.1000E-04
  partition_type (choice of integration weights) for integrals was not specified.
  | Using a version of the partition function of Stratmann and coworkers ('stratmann_sparse').
  | At each grid point, the set of atoms used to build the partition table is smoothly restricted to
  | only those atoms whose free-atom density would be non-zero at that grid point.
  Partitioning for Hartree potential was not defined. Using partition_type for integrals.
  | Adjusted default value of keyword multip_moments_threshold to:       0.10000000E-11
  | This value may affect high angular momentum components of the Hartree potential in periodic systems.
  Angular momentum expansion for Kerker preconditioner not set explicitly.
  | Using default value of   0
  No explicit requirement for turning off preconditioner.
  | By default, it will be turned off when the charge convergence reaches
  | sc_accuracy_rho  =   0.927362E-05
  No special mixing parameter while Kerker preconditioner is on.
  Using default: charge_mix_param =     0.0500.
  No q(lm)/r^(l+1) cutoff set for long-range Hartree potential.
  | Using default value of  0.100000E-09 .
  | Verify using the multipole_threshold keyword.
  Defaulting to new monopole extrapolation.
  Density update method: automatic selection selected.
  Using density matrix based charge density update.
  Using density matrix based charge density update.
  Using packed matrix style: index .

 *** read_control:   Cube type stm not implemented for load_balancing or use_local_index keywords.  Exiting.
