------------------------------------------------------------
          Invoking FHI-aims ...

          When using FHI-aims, please cite the following reference:

            Volker Blum, Ralf Gehrke, Felix Hanke, Paula Havu,
            Ville Havu, Xinguo Ren, Karsten Reuter, and Matthias Scheffler,
            'Ab Initio Molecular Simulations with Numeric Atom-Centered Orbitals',
            Computer Physics Communications 180, 2175-2196 (2009)

          In addition, many other developments in FHI-aims are likely important for
          your particular application. A partial list of references is given at the end of
          this file. Thank you for giving credit to the authors of these developments.

          For any questions about FHI-aims, please visit our slack channel at

            https://fhi-aims.slack.com

          and our main development and support site at

            https://aims-git.rz-berlin.mpg.de .

          The latter site, in particular, has a wiki to collect information, as well
          as an issue tracker to log discussions, suggest improvements, and report issues
          or bugs. https://aims-git.rz-berlin.mpg.de is also the main development site
          of the project and all new and updated code versions can be obtained there.
          Please send an email to aims-coordinators@fhi-berlin.mpg.de and we will add
          you to these sites. They are for you and everyone is welcome there.

------------------------------------------------------------



  Date     :  20220930, Time     :  065552.146
  Time zero on CPU 1             :   0.399084000000000E+00  s.
  Internal wall clock time zero  :           433752952.146  s.

  FHI-aims created a unique identifier for this run for later identification
  aims_uuid : C0E23A3F-C662-4B50-A5FD-93BB6592AD73

  Build configuration of the current instance of FHI-aims
  -------------------------------------------------------
  FHI-aims version      : 220117
  Commit number         : 0c0e6afe2
  CMake host system     : Linux-5.3.18-24.99-default
  CMake version         : 3.22.0
  Fortran compiler      : /mpcdf/soft/SLE_15/packages/x86_64/intel_oneapi/2021.4/mpi/2021.4.0/bin/mpiifort (Intel) version 2021.4.0.20210910
  Fortran compiler flags: -O3 -ip -fp-model precise
  C compiler            : /mpcdf/soft/SLE_15/packages/x86_64/intel/2021.4.0/bin/icc (Intel) version 2021.4.0.20210910
  C compiler flags      : -O3 -ip -fp-model precise
  C++ compiler          : /mpcdf/soft/SLE_15/packages/x86_64/intel/2021.4.0/bin/icpc (Intel) version 2021.4.0.20210910
  C++ compiler flags    : -O3 -ip -fp-model precise
  Using MPI
  Using ScaLAPACK
  Using LibXC
  Using i-PI
  Using RLSY
  Linking against: /mpcdf/soft/SLE_15/packages/x86_64/intel_oneapi/2021.4/mkl/latest/lib/intel64/libmkl_intel_lp64.so
                   /mpcdf/soft/SLE_15/packages/x86_64/intel_oneapi/2021.4/mkl/latest/lib/intel64/libmkl_sequential.so
                   /mpcdf/soft/SLE_15/packages/x86_64/intel_oneapi/2021.4/mkl/latest/lib/intel64/libmkl_core.so
                   /mpcdf/soft/SLE_15/packages/x86_64/intel_oneapi/2021.4/mkl/latest/lib/intel64/libmkl_blacs_intelmpi_lp64.so
                   /mpcdf/soft/SLE_15/packages/x86_64/intel_oneapi/2021.4/mkl/latest/lib/intel64/libmkl_scalapack_lp64.so

  Using      288 parallel tasks.
  Task        0 on host ravg1134 reporting.
  Task        1 on host ravg1134 reporting.
  Task        2 on host ravg1134 reporting.
  Task        3 on host ravg1134 reporting.
  Task        4 on host ravg1134 reporting.
  Task        5 on host ravg1134 reporting.
  Task        6 on host ravg1134 reporting.
  Task        7 on host ravg1134 reporting.
  Task        8 on host ravg1134 reporting.
  Task        9 on host ravg1134 reporting.
  Task       10 on host ravg1134 reporting.
  Task       11 on host ravg1134 reporting.
  Task       12 on host ravg1134 reporting.
  Task       13 on host ravg1134 reporting.
  Task       14 on host ravg1134 reporting.
  Task       15 on host ravg1134 reporting.
  Task       16 on host ravg1134 reporting.
  Task       17 on host ravg1134 reporting.
  Task       18 on host ravg1134 reporting.
  Task       19 on host ravg1134 reporting.
  Task       20 on host ravg1134 reporting.
  Task       21 on host ravg1134 reporting.
  Task       22 on host ravg1134 reporting.
  Task       23 on host ravg1134 reporting.
  Task       24 on host ravg1134 reporting.
  Task       25 on host ravg1134 reporting.
  Task       26 on host ravg1134 reporting.
  Task       27 on host ravg1134 reporting.
  Task       28 on host ravg1134 reporting.
  Task       29 on host ravg1134 reporting.
  Task       30 on host ravg1134 reporting.
  Task       31 on host ravg1134 reporting.
  Task       32 on host ravg1134 reporting.
  Task       33 on host ravg1134 reporting.
  Task       34 on host ravg1134 reporting.
  Task       35 on host ravg1134 reporting.
  Task       36 on host ravg1134 reporting.
  Task       37 on host ravg1134 reporting.
  Task       38 on host ravg1134 reporting.
  Task       39 on host ravg1134 reporting.
  Task       40 on host ravg1134 reporting.
  Task       41 on host ravg1134 reporting.
  Task       42 on host ravg1134 reporting.
  Task       43 on host ravg1134 reporting.
  Task       44 on host ravg1134 reporting.
  Task       45 on host ravg1134 reporting.
  Task       46 on host ravg1134 reporting.
  Task       47 on host ravg1134 reporting.
  Task       48 on host ravg1134 reporting.
  Task       49 on host ravg1134 reporting.
  Task       50 on host ravg1134 reporting.
  Task       51 on host ravg1134 reporting.
  Task       52 on host ravg1134 reporting.
  Task       53 on host ravg1134 reporting.
  Task       54 on host ravg1134 reporting.
  Task       55 on host ravg1134 reporting.
  Task       56 on host ravg1134 reporting.
  Task       57 on host ravg1134 reporting.
  Task       58 on host ravg1134 reporting.
  Task       59 on host ravg1134 reporting.
  Task       60 on host ravg1134 reporting.
  Task       61 on host ravg1134 reporting.
  Task       62 on host ravg1134 reporting.
  Task       63 on host ravg1134 reporting.
  Task       64 on host ravg1134 reporting.
  Task       65 on host ravg1134 reporting.
  Task       66 on host ravg1134 reporting.
  Task       67 on host ravg1134 reporting.
  Task       68 on host ravg1134 reporting.
  Task       69 on host ravg1134 reporting.
  Task       70 on host ravg1134 reporting.
  Task       71 on host ravg1134 reporting.
  Task       72 on host ravg1135 reporting.
  Task       73 on host ravg1135 reporting.
  Task       74 on host ravg1135 reporting.
  Task       75 on host ravg1135 reporting.
  Task       76 on host ravg1135 reporting.
  Task       77 on host ravg1135 reporting.
  Task       78 on host ravg1135 reporting.
  Task       79 on host ravg1135 reporting.
  Task       80 on host ravg1135 reporting.
  Task       81 on host ravg1135 reporting.
  Task       82 on host ravg1135 reporting.
  Task       83 on host ravg1135 reporting.
  Task       84 on host ravg1135 reporting.
  Task       85 on host ravg1135 reporting.
  Task       86 on host ravg1135 reporting.
  Task       87 on host ravg1135 reporting.
  Task       88 on host ravg1135 reporting.
  Task       89 on host ravg1135 reporting.
  Task       90 on host ravg1135 reporting.
  Task       91 on host ravg1135 reporting.
  Task       92 on host ravg1135 reporting.
  Task       93 on host ravg1135 reporting.
  Task       94 on host ravg1135 reporting.
  Task       95 on host ravg1135 reporting.
  Task       96 on host ravg1135 reporting.
  Task       97 on host ravg1135 reporting.
  Task       98 on host ravg1135 reporting.
  Task       99 on host ravg1135 reporting.
  Task      100 on host ravg1135 reporting.
  Task      101 on host ravg1135 reporting.
  Task      102 on host ravg1135 reporting.
  Task      103 on host ravg1135 reporting.
  Task      104 on host ravg1135 reporting.
  Task      105 on host ravg1135 reporting.
  Task      106 on host ravg1135 reporting.
  Task      107 on host ravg1135 reporting.
  Task      108 on host ravg1135 reporting.
  Task      109 on host ravg1135 reporting.
  Task      110 on host ravg1135 reporting.
  Task      111 on host ravg1135 reporting.
  Task      112 on host ravg1135 reporting.
  Task      113 on host ravg1135 reporting.
  Task      114 on host ravg1135 reporting.
  Task      115 on host ravg1135 reporting.
  Task      116 on host ravg1135 reporting.
  Task      117 on host ravg1135 reporting.
  Task      118 on host ravg1135 reporting.
  Task      119 on host ravg1135 reporting.
  Task      120 on host ravg1135 reporting.
  Task      121 on host ravg1135 reporting.
  Task      122 on host ravg1135 reporting.
  Task      123 on host ravg1135 reporting.
  Task      124 on host ravg1135 reporting.
  Task      125 on host ravg1135 reporting.
  Task      126 on host ravg1135 reporting.
  Task      127 on host ravg1135 reporting.
  Task      128 on host ravg1135 reporting.
  Task      129 on host ravg1135 reporting.
  Task      130 on host ravg1135 reporting.
  Task      131 on host ravg1135 reporting.
  Task      132 on host ravg1135 reporting.
  Task      133 on host ravg1135 reporting.
  Task      134 on host ravg1135 reporting.
  Task      135 on host ravg1135 reporting.
  Task      136 on host ravg1135 reporting.
  Task      137 on host ravg1135 reporting.
  Task      138 on host ravg1135 reporting.
  Task      139 on host ravg1135 reporting.
  Task      140 on host ravg1135 reporting.
  Task      141 on host ravg1135 reporting.
  Task      142 on host ravg1135 reporting.
  Task      143 on host ravg1135 reporting.
  Task      144 on host ravg1136 reporting.
  Task      145 on host ravg1136 reporting.
  Task      146 on host ravg1136 reporting.
  Task      147 on host ravg1136 reporting.
  Task      148 on host ravg1136 reporting.
  Task      149 on host ravg1136 reporting.
  Task      150 on host ravg1136 reporting.
  Task      151 on host ravg1136 reporting.
  Task      152 on host ravg1136 reporting.
  Task      153 on host ravg1136 reporting.
  Task      154 on host ravg1136 reporting.
  Task      155 on host ravg1136 reporting.
  Task      156 on host ravg1136 reporting.
  Task      157 on host ravg1136 reporting.
  Task      158 on host ravg1136 reporting.
  Task      159 on host ravg1136 reporting.
  Task      160 on host ravg1136 reporting.
  Task      161 on host ravg1136 reporting.
  Task      162 on host ravg1136 reporting.
  Task      163 on host ravg1136 reporting.
  Task      164 on host ravg1136 reporting.
  Task      165 on host ravg1136 reporting.
  Task      166 on host ravg1136 reporting.
  Task      167 on host ravg1136 reporting.
  Task      168 on host ravg1136 reporting.
  Task      169 on host ravg1136 reporting.
  Task      170 on host ravg1136 reporting.
  Task      171 on host ravg1136 reporting.
  Task      172 on host ravg1136 reporting.
  Task      173 on host ravg1136 reporting.
  Task      174 on host ravg1136 reporting.
  Task      175 on host ravg1136 reporting.
  Task      176 on host ravg1136 reporting.
  Task      177 on host ravg1136 reporting.
  Task      178 on host ravg1136 reporting.
  Task      179 on host ravg1136 reporting.
  Task      180 on host ravg1136 reporting.
  Task      181 on host ravg1136 reporting.
  Task      182 on host ravg1136 reporting.
  Task      183 on host ravg1136 reporting.
  Task      184 on host ravg1136 reporting.
  Task      185 on host ravg1136 reporting.
  Task      186 on host ravg1136 reporting.
  Task      187 on host ravg1136 reporting.
  Task      188 on host ravg1136 reporting.
  Task      189 on host ravg1136 reporting.
  Task      190 on host ravg1136 reporting.
  Task      191 on host ravg1136 reporting.
  Task      192 on host ravg1136 reporting.
  Task      193 on host ravg1136 reporting.
  Task      194 on host ravg1136 reporting.
  Task      195 on host ravg1136 reporting.
  Task      196 on host ravg1136 reporting.
  Task      197 on host ravg1136 reporting.
  Task      198 on host ravg1136 reporting.
  Task      199 on host ravg1136 reporting.
  Task      200 on host ravg1136 reporting.
  Task      201 on host ravg1136 reporting.
  Task      202 on host ravg1136 reporting.
  Task      203 on host ravg1136 reporting.
  Task      204 on host ravg1136 reporting.
  Task      205 on host ravg1136 reporting.
  Task      206 on host ravg1136 reporting.
  Task      207 on host ravg1136 reporting.
  Task      208 on host ravg1136 reporting.
  Task      209 on host ravg1136 reporting.
  Task      210 on host ravg1136 reporting.
  Task      211 on host ravg1136 reporting.
  Task      212 on host ravg1136 reporting.
  Task      213 on host ravg1136 reporting.
  Task      214 on host ravg1136 reporting.
  Task      215 on host ravg1136 reporting.
  Task      216 on host ravg1139 reporting.
  Task      217 on host ravg1139 reporting.
  Task      218 on host ravg1139 reporting.
  Task      219 on host ravg1139 reporting.
  Task      220 on host ravg1139 reporting.
  Task      221 on host ravg1139 reporting.
  Task      222 on host ravg1139 reporting.
  Task      223 on host ravg1139 reporting.
  Task      224 on host ravg1139 reporting.
  Task      225 on host ravg1139 reporting.
  Task      226 on host ravg1139 reporting.
  Task      227 on host ravg1139 reporting.
  Task      228 on host ravg1139 reporting.
  Task      229 on host ravg1139 reporting.
  Task      230 on host ravg1139 reporting.
  Task      231 on host ravg1139 reporting.
  Task      232 on host ravg1139 reporting.
  Task      233 on host ravg1139 reporting.
  Task      234 on host ravg1139 reporting.
  Task      235 on host ravg1139 reporting.
  Task      236 on host ravg1139 reporting.
  Task      237 on host ravg1139 reporting.
  Task      238 on host ravg1139 reporting.
  Task      239 on host ravg1139 reporting.
  Task      240 on host ravg1139 reporting.
  Task      241 on host ravg1139 reporting.
  Task      242 on host ravg1139 reporting.
  Task      243 on host ravg1139 reporting.
  Task      244 on host ravg1139 reporting.
  Task      245 on host ravg1139 reporting.
  Task      246 on host ravg1139 reporting.
  Task      247 on host ravg1139 reporting.
  Task      248 on host ravg1139 reporting.
  Task      249 on host ravg1139 reporting.
  Task      250 on host ravg1139 reporting.
  Task      251 on host ravg1139 reporting.
  Task      252 on host ravg1139 reporting.
  Task      253 on host ravg1139 reporting.
  Task      254 on host ravg1139 reporting.
  Task      255 on host ravg1139 reporting.
  Task      256 on host ravg1139 reporting.
  Task      257 on host ravg1139 reporting.
  Task      258 on host ravg1139 reporting.
  Task      259 on host ravg1139 reporting.
  Task      260 on host ravg1139 reporting.
  Task      261 on host ravg1139 reporting.
  Task      262 on host ravg1139 reporting.
  Task      263 on host ravg1139 reporting.
  Task      264 on host ravg1139 reporting.
  Task      265 on host ravg1139 reporting.
  Task      266 on host ravg1139 reporting.
  Task      267 on host ravg1139 reporting.
  Task      268 on host ravg1139 reporting.
  Task      269 on host ravg1139 reporting.
  Task      270 on host ravg1139 reporting.
  Task      271 on host ravg1139 reporting.
  Task      272 on host ravg1139 reporting.
  Task      273 on host ravg1139 reporting.
  Task      274 on host ravg1139 reporting.
  Task      275 on host ravg1139 reporting.
  Task      276 on host ravg1139 reporting.
  Task      277 on host ravg1139 reporting.
  Task      278 on host ravg1139 reporting.
  Task      279 on host ravg1139 reporting.
  Task      280 on host ravg1139 reporting.
  Task      281 on host ravg1139 reporting.
  Task      282 on host ravg1139 reporting.
  Task      283 on host ravg1139 reporting.
  Task      284 on host ravg1139 reporting.
  Task      285 on host ravg1139 reporting.
  Task      286 on host ravg1139 reporting.
  Task      287 on host ravg1139 reporting.

  Performing system and environment tests:
  | Environment variable OMP_NUM_THREADS correctly set to 1.
  | Checking for ScaLAPACK...
  | Testing pdtran()...
  | All pdtran() tests passed.

  Obtaining array dimensions for all initial allocations:
  
  -----------------------------------------------------------------------
  Parsing control.in (first pass over file, find array dimensions only).
  The contents of control.in will be repeated verbatim below
  unless switched off by setting 'verbatim_writeout .false.' .
  in the first line of control.in .
  -----------------------------------------------------------------------
  
  xc                 hse06  0.11
  hse_unit b
  spin               collinear
  default_initial_moment 1
  charge      0.0
  relativistic       atomic_zora scalar
  #elsi_restart read
  # SCF settings
  #relax_geometry bfgs 1E-3
  #relax_unit_cell fixed_angles
  use_symmetric_forces .true.
  occupation_type gaussian       0.1
  # k-grid settings  (to be adjusted)
  k_grid  4 4 1
  #empty_states 8
  use_dipole_correction
  include_spin_orbit non_self_consistent
  # sc_accuracy_rho    1E-4
  #    sc_accuracy_eev    1E-3
  #    sc_accuracy_etot   1E-4
  #    sc_accuracy_forces 1E-2
  output dos_tetrahedron -10 0 2001 0.1
  output species_proj_dos_tetrahedron -10 0 2001 0.1
  
  many_body_dispersion_nl    beta=0.83
  ################################################################################
  #
  #  FHI-aims code project
  #  Volker Blum, 2018
  #
  #  Suggested "intermediate" defaults for Se atom (to be pasted into control.in file)
  #
  #  2020/09/15 These "intermediate" settings are identical to past "tight" defaults
  #             and differ only in the "g" function that is now included in "tight".
  #
  ################################################################################
    species        Se
  #     global species definitions
      nucleus             34
      mass                78.96
  #
      l_hartree           6
  #
      cut_pot             4.0          2.0  1.0
      basis_dep_cutoff    1e-4
  #
      radial_base         55 7.0
      radial_multiplier   2
      angular_grids       specified
        division   0.0830  110
        division   0.1357  194
        division   0.7377  302
        division   0.8610  434
  #      division   0.9640  590
  #      division   1.0773  770
  #      division   2.5539  974
  #      outer_grid  974
        outer_grid  434
  ################################################################################
  #
  #  Definition of "minimal" basis
  #
  ################################################################################
  #     valence basis states
      valence      4  s   2.
      valence      4  p   4.
      valence      3  d  10.
  #     ion occupancy
      ion_occ      4  s   1.
      ion_occ      4  p   3.
      ion_occ      3  d  10.
  ################################################################################
  #
  #  Suggested additional basis functions. For production calculations,
  #  uncomment them one after another (the most important basis functions are
  #  listed first).
  #
  #  Constructed for dimers: 1.85 A, 2.15 A, 2.50 A, 3.00 A, 4.00 A
  #
  ################################################################################
  #  "First tier" - improvements: -336.21 meV to -36.85 meV
       hydro 3 d 4.3
       hydro 2 p 1.6
       hydro 4 f 7.2
       ionic 4 s auto
  #  "Second tier" - improvements: -14.39 meV to -1.49 meV
  #     hydro 5 g 10.4
  #     hydro 4 p 4.5
  #     hydro 4 d 6.2
  #     hydro 4 f 11.2
  #     hydro 1 s 0.65
  #     hydro 6 h 15.2
  #  "Third tier" - improvements: -0.46 meV and below
  #     hydro 5 g 14.4
  #     ionic 4 d auto
  #     hydro 4 f 22.4
  #     hydro 5 f 7.4
  #     hydro 5 p 8
  #     hydro 5 s 9.4
  #  "Fourth tier" - improvements: -0.12 meV and below
  #     hydro 5 d 11.6
  #     hydro 6 h 18
  #     hydro 4 p 4
  #     hydro 5 f 16
  #     hydro 4 s 3.9
  
  
  ################################################################################
  #
  #  FHI-aims code project
  #  Volker Blum, 2018
  #
  #  Suggested "intermediate" defaults for S atom (to be pasted into control.in file)
  #
  ################################################################################
    species        S
  #     global species definitions
      nucleus             16
      mass                32.065
  #
      l_hartree           6
  #
      cut_pot             4.0          2.0  1.0
      basis_dep_cutoff    1e-4
  #
      radial_base         44 7.0
      radial_multiplier   2
      angular_grids       specified
        division   0.4665  110
        division   0.5810  194
        division   0.7139  302
        division   0.8274  434
  #      division   0.9105  590
  #      division   1.0975  770
  #      division   1.2028  974
  #      outer_grid  974
        outer_grid  434
  ################################################################################
  #
  #  Definition of "minimal" basis
  #
  ################################################################################
  #     valence basis states
      valence      3  s   2.
      valence      3  p   4.
  #     ion occupancy
      ion_occ      3  s   1.
      ion_occ      3  p   3.
  ################################################################################
  #
  #  Suggested additional basis functions. For production calculations,
  #  uncomment them one after another (the most important basis functions are
  #  listed first).
  #
  #  Constructed for dimers: 1.6 A, 1.9 A, 2.5 A, 3.25 A, 4.0 A
  #
  ################################################################################
  #  "First tier" - improvements: -652.81 meV to -45.53 meV
       ionic 3 d auto
       hydro 2 p 1.8
       hydro 4 f 7
       ionic 3 s auto
  #  "Second tier" - improvements: -30.20 meV to -1.74 meV
  #     hydro 4 d 6.2
  for_aux     hydro 5 g 10.8
  #     hydro 4 p 4.9
  #     hydro 5 f 10
  #     hydro 1 s 0.8
  #  "Third tier" - improvements: -1.04 meV to -0.20 meV
  #     hydro 3 d 3.9
  #     hydro 3 d 2.7
  #     hydro 5 g 12
  #     hydro 4 p 10.4
  #     hydro 5 f 12.4
  #     hydro 2 s 1.9
  #  "Fourth tier" - improvements: -0.35 meV to -0.06 meV
  #     hydro 4 d 10.4
  #     hydro 4 p 7.2
  #     hydro 4 d 10
  #     hydro 5 g 19.2
  #     hydro 4 s 12
  
  ################################################################################
  #
  #  FHI-aims code project
  # Volker Blum, Fritz Haber Institute Berlin, 2009
  #
  #  Suggested "intermediate" defaults for Mo atom (to be pasted into control.in file)
  #
  #  See https://aaltodoc.aalto.fi/handle/123456789/33620 for the report these
  #  setting are based on
  ################################################################################
    species        Mo
  #     global species definitions
      nucleus             42
      mass                95.94
  #
      l_hartree           6
  #
      cut_pot             4.0  2.0  1.0
      basis_dep_cutoff    1e-4
  #
      radial_base         59 7.0
      radial_multiplier   2
      angular_grids specified
        division   0.3117   50
        division   0.6750  110
        division   1.0351  194
        division   1.2073  302
        division   1.6402  434
  #      division   1.9185  590
  #      division   2.0237  770
  #      division   2.0980  974
  #      division   2.7972 1202
  #      outer_grid  974
        outer_grid  434
  ################################################################################
  #
  #  Definition of "minimal" basis
  #
  ################################################################################
  #     valence basis states
      valence      5  s   1.
      valence      4  p   6.
      valence      4  d   5.
  #     ion occupancy
      ion_occ     5  s   0.
      ion_occ     4  p   6.
      ion_occ     4  d   4.
  ################################################################################
  #
  #  Suggested additional basis functions. For production calculations,
  #  uncomment them one after another (the most important basis functions are
  #  listed first).
  #
  #  Constructed for dimers: 1.675 A, 1.9 A, 2.375 A, 3.00 A, 4.00 A
  #
  ################################################################################
  #  "First tier"  - max. impr. -711.23  meV, min. impr. -21.07 meV
       hydro 4 f 8.4
       hydro 3 d 2.8
       ionic 5 p auto
       for_aux hydro 5 g 12
       ionic 5 s auto
  #  "Second tier" - max. impr. -39.38  meV, min. impr. -2.68 meV
  #     hydro 4 f 12.4
  #     hydro 3 d 3.3
  #     hydro 6 h 17.2
  #     hydro 4 f 7.6
  #     hydro 3 p 3.0
  #     hydro 1 s 0.65
  #  "Third tier"  - max. impr. -5.50 meV, min. impr. -0.47 meV
  #     hydro 4 f 29.2
  #     hydro 5 g 11.2
  #     hydro 3 d 6.8
  #     hydro 6 h 14.8
  #     hydro 2 p 2.3
  #     hydro 4 s 3.8
  #  "Fourth tier"  - max. impr. -0.58 meV, min. impr. -0.19 meV
  #     hydro 5 f 6.8
  #     hydro 5 d 14.8
  #     hydro 6 s 7.8
  #     hydro 5 g 20.8
  #     hydro 5 d 10.4
  #     hydro 5 p 9.8
  #  Further functions - -0.17 meV and below
  #     hydro 5 d 3.2
  ################################################################################
  #
  #  FHI-aims code project
  #  Volker Blum, Maria Dragoumi, Sebastian Kokott 2020
  #
  #  Suggested "intermediate" defaults for W atom (to be pasted into control.in file)
  #
  ################################################################################
    species          W
  #     global species definitions
      nucleus        74
      mass           183.84
  #
      l_hartree      6
  #
      cut_pot        4.0  2.0  1.0
      basis_dep_cutoff    1e-4
  #
      radial_base    71  7.0
      radial_multiplier  2
      angular_grids specified
        division   0.2901   50
        division   0.6986  110
        division   1.0528  194
        division   1.2659  302
        division   1.5223  434
  #      division   1.8111  590
  #      division   2.0105  770
  #      division   2.0413  974
  #      division   2.8804 1202
  #      outer_grid  974
        outer_grid  434
  ################################################################################
  #
  #  Definition of "minimal" basis
  #
  ################################################################################
  #     valence basis states
      valence      6  s   2.
      valence      5  p   6.
      valence      5  d   4.
      valence      4  f  14.
  #     ion occupancy
      ion_occ      6  s   1.
      ion_occ      5  p   6.
      ion_occ      5  d   3.
      ion_occ      4  f  14.
  ################################################################################
  #
  #  Suggested additional basis functions. For production calculations,
  #  uncomment them one after another (the most important basis functions are
  #  listed first).
  #
  #  Constructed for dimers: 1.775, 1.99, 2.50, 3.25, 4.50 AA
  #
  ################################################################################
  #
  #  "First tier" - improvements: -603.77 meV to -28.99 meV
       hydro 4 f 7.8
       hydro 4 d 5.8
       ionic 6 p auto
    for_aux   hydro 5 g 12.4
       ionic 6 s auto
  #  "Second tier" - improvements: -28.30 meV to -1.31 meV
  #     hydro 6 h 16.8
  #     ionic 5 d auto
  #     hydro 4 f 8.6
  #     hydro 5 g 16.8
  #     hydro 5 d 8.4
  #     hydro 3 p 3.3
  #     hydro 1 s 0.55
  #  "Third tier" - max. impr. -1.79 meV, min. impr. -0.26 meV
  #     hydro 5 f 10.8
  #     hydro 5 g 34.4
  #     hydro 6 h 20.8
  #     hydro 5 g 12.8
  #     hydro 2 p 1.6
  #     hydro 4 s 4.7
  #     hydro 6 d 18.4
  #  "Fourth tier" -0.46 max. impr. - meV, min. impr. -0.09 meV
  #     hydro 6 h 21.6
  #     hydro 5 f 22.4
  #     hydro 4 f 4
  #     hydro 5 p 9.6
  #     hydro 6 d 17.2
  #     hydro 3 p 5.2
  #     hydro 5 g 4.7
  #     hydro 6 s 7.6
  
  -----------------------------------------------------------------------
  Completed first pass over input file control.in .
  -----------------------------------------------------------------------
  
  
  -----------------------------------------------------------------------
  Parsing geometry.in (first pass over file, find array dimensions only).
  The contents of geometry.in will be repeated verbatim below
  unless switched off by setting 'verbatim_writeout .false.' .
  in the first line of geometry.in .
  -----------------------------------------------------------------------
  
  #
  # This is the geometry file that corresponds to the current relaxation step.
  # If you do not want this file to be written, set the "write_restart_geometry" flag to .false.
  #  aims_uuid : 6C4D55F7-4CE2-4425-A65E-0F39029EAAD4
  #
    set_vacuum_level       103.343980
  lattice_vector     16.35742505      0.00000000      0.00000000
  lattice_vector     -8.17073830     14.17072870      0.00000000
  lattice_vector      0.00000000      0.00000000    103.34910518
  atom      -0.00049962      0.94036330     51.71393765 W
  atom       1.65301613      1.91134839     53.36880748 Se
  atom       1.63063546      1.89612656     50.03582231 Se
  atom      -1.62894313      3.78686779     51.72037781 W
  atom       0.02322187      4.77561264     53.36042279 Se
  atom      -0.00600685      4.71535231     50.01988993 Se
  atom      -3.25397364      6.63717862     51.71424541 W
  atom      -1.53993597      7.66583335     53.32442408 Se
  atom      -1.64389107      7.57293422     49.98931329 Se
  atom      -4.89045603      9.43710404     51.69201164 W
  atom      -3.15476798     10.38356740     53.30924617 Se
  atom      -3.25243531     10.36081937     49.98587556 Se
  atom      -6.53825069     12.26804923     51.69319633 W
  atom      -4.87157604     13.20478165     53.34585712 Se
  atom      -4.90796709     13.22581343     50.01238452 Se
  atom       3.27817356      0.94580152     51.69321346 W
  atom       4.91525064      1.90717097     53.35311995 Se
  atom       4.91445630      1.88808240     50.01883658 Se
  atom       1.64762969      3.81130096     51.69164601 W
  atom       3.31796496      4.85148602     53.32020307 Se
  atom       3.26592104      4.75187005     49.98578591 Se
  atom       0.02317816      6.64258947     51.64492864 W
  atom       1.69505248      7.64411332     53.25858413 Se
  atom       1.66538673      7.55149068     49.93536393 Se
  atom      -1.50913604      9.50482302     51.58960486 W
  atom       0.00772004     10.38582160     49.80563872 Se
  atom      -3.23946852     12.26188622     51.64926979 W
  atom      -1.56995019     13.12675424     53.30922453 Se
  atom      -1.59908200     13.22271373     49.98582150 Se
  atom       6.55374028      0.93240715     51.69202872 W
  atom       8.16294928      1.87948275     53.38606868 Se
  atom       8.18727609      1.89500043     50.04266429 Se
  atom       4.90538697      3.81181104     51.66595105 W
  atom       6.48485408      4.81680549     53.33496751 Se
  atom       6.56376250      4.73959241     50.00384785 Se
  atom       3.37952283      6.69351487     51.58407861 W
  atom       4.92404136      7.54550902     49.82087493 Se
  atom       1.56745231      9.48468850     51.54377789 W
  atom       3.22565148     10.29362510     53.25854183 Se
  atom       3.29101378     10.36554807     49.93526616 Se
  atom       0.01323021     12.14004239     51.58951931 W
  atom       1.59095573     13.08526622     53.32433663 Se
  atom       1.61950224     13.22174542     49.98922387 Se
  atom       9.79660876      0.91328485     51.71418232 W
  atom      11.43377047      1.85644370     53.39832551 Se
  atom      11.44177760      1.88706789     50.06126945 Se
  atom       8.17266526      3.78908567     51.71698072 W
  atom       9.80081623      4.72809627     53.40474362 Se
  atom       9.82254213      4.71552917     50.05807561 Se
  atom       6.43854091      6.67052569     51.60752195 W
  atom       8.06749640      7.55643759     53.33494636 Se
  atom       8.17381354      7.52659844     50.00381664 Se
  atom       4.89055073      9.30923623     51.58396128 W
  atom       6.45550274     10.28262145     53.32014868 Se
  atom       6.51583440     10.37745152     49.98566680 Se
  atom       3.25817034     12.24220786     51.64486512 W
  atom       4.87552606     13.17480086     53.36035423 Se
  atom       4.91311579     13.23023823     50.01981265 Se
  atom      13.07756435      0.92925568     51.72035758 W
  atom      14.72280337      1.88444641     53.39006299 Se
  atom      14.71448748      1.88926934     50.05237161 Se
  atom      11.44969864      3.77543872     51.74007713 W
  atom      13.10417256      4.74777763     53.39837610 Se
  atom      13.08165116      4.72555600     50.06130697 Se
  atom       9.80092280      6.60760585     51.71696913 W
  atom      11.45039063      7.56993855     53.38606695 Se
  atom      11.44911044      7.54106120     50.04270410 Se
  atom       8.14908850      9.42673016     51.66588318 W
  atom       9.80404172     10.36962098     53.35308330 Se
  atom       9.82020561     10.37983003     50.01882382 Se
  atom       6.52226609     12.24920646     51.69154620 W
  atom       8.17090995     13.19361000     53.36875938 Se
  atom       8.17294225     13.22062056     50.03580093 Se
  #
  # What follows is the current estimated Hessian matrix constructed by the BFGS algorithm.
  # This is NOT the true Hessian matrix of the system.
  # If you do not want this information here, switch it off using the "hessian_to_restart_geometry" keyword.
  #
  trust_radius             0.0001748889
  hessian_file
  
  -----------------------------------------------------------------------
  Completed first pass over input file geometry.in .
  -----------------------------------------------------------------------
  

  Basic array size parameters:
  | Number of species                 :        4
  | Number of atoms                   :       73
  | Number of lattice vectors         :        3
  | Max. basis fn. angular momentum   :        4
  | Max. atomic/ionic basis occupied n:        6
  | Max. number of basis fn. types    :        3
  | Max. radial fns per species/type  :       14
  | Max. logarithmic grid size        :     1483
  | Max. radial integration grid size :      143
  | Max. angular integration grid size:      434
  | Max. angular grid division number :        8
  | Radial grid for Hartree potential :     1483
  | Number of spin channels           :        2

------------------------------------------------------------
          Reading file control.in.
------------------------------------------------------------

  XC: Using HSE-functional with OMEGA =  0.110000E+00 <units>.
  XC: For the actual units (bohr^-1 or Angstrom^-1), see below.
  hse_unit: Unit for the HSE06 hybrid functional screening parameter set to bohr^(-1).
  Spin treatment: Spin density functional theory - collinear spins.
  Initial spin moment per atom:   1.0000
  Charge =   0.000000E+00: Neutral system requested explicitly.
  Scalar relativistic treatment of kinetic energy: on-site free-atom approximation to ZORA.
  Occupation type: Gaussian broadening, width =   0.100000E+00 eV.
  Found k-point grid:         4         4         1
  Using dipole correction.
  Calculating non-self-consistent second-variational spin-orbit coupling after scf-cycle
  You have request a SOC run with spin-polarization.
  symmetry_reduced_k_grid will be turned off.
  Calculating density of states with
  | energy interval :-10.000000  0.000000
  | points & tetrahedron method :  2001
  Calculating angular-momentum projected DOS with 
  | energy interval :-10.000000  0.000000
  | points & tetrahedron :  2001
  Using libMBD for calculating MBD and TS energies
 
  Reading configuration options for species Se                  .
  | Found nuclear charge :  34.0000
  | Found atomic mass :    78.9600000000000      amu
  | Found l_max for Hartree potential  :   6
  | Found cutoff potl. onset [A], width [A], scale factor :    4.00000    2.00000    1.00000
  | Threshold for basis-dependent cutoff potential is   0.100000E-03
  | Found data for basic radial integration grid :    55 points, outermost radius =    7.000 A
  | Found multiplier for basic radial grid :   2
  | Found angular grid specification: user-specified.
  | Specified grid contains     5 separate shells.
  | Check grid settings after all constraints further below.
  | Found free-atom valence shell :  4 s   2.000
  | Found free-atom valence shell :  4 p   4.000
  | Found free-atom valence shell :  3 d  10.000
  | Found free-ion valence shell :  4 s   1.000
  | Found free-ion valence shell :  4 p   3.000
  | Found free-ion valence shell :  3 d  10.000
  | Found hydrogenic basis function :  3 d   4.300
  | Found hydrogenic basis function :  2 p   1.600
  | Found hydrogenic basis function :  4 f   7.200
  | Found ionic basis function :  4 s , default cutoff radius.
  Species Se                  : Missing cutoff potential type.
  Defaulting to exp(1/x)/(1-x)^2 type cutoff potential.
  Species Se: No 'logarithmic' tag. Using default grid for free atom:
  | Default logarithmic grid data [bohr] : 0.1000E-03 0.1000E+03 0.1012E+01
  | Will include ionic basis functions of  2.0-fold positive Se                   ion.
  Species Se: On-site basis accuracy parameter (for Gram-Schmidt orthonormalisation) not specified.
  Using default value basis_acc =  0.1000000E-03.
  Species Se                  : Using default innermost maximum threshold i_radial=  2 for radial functions.
  Species Se                  : Default cutoff onset for free atom density etc. : 0.40000000E+01 AA.
  Species Se                  : Basic radial grid will be enhanced according to radial_multiplier =   2, to contain   111 grid points.
 
  Reading configuration options for species S                   .
  | Found nuclear charge :  16.0000
  | Found atomic mass :    32.0650000000000      amu
  | Found l_max for Hartree potential  :   6
  | Found cutoff potl. onset [A], width [A], scale factor :    4.00000    2.00000    1.00000
  | Threshold for basis-dependent cutoff potential is   0.100000E-03
  | Found data for basic radial integration grid :    44 points, outermost radius =    7.000 A
  | Found multiplier for basic radial grid :   2
  | Found angular grid specification: user-specified.
  | Specified grid contains     5 separate shells.
  | Check grid settings after all constraints further below.
  | Found free-atom valence shell :  3 s   2.000
  | Found free-atom valence shell :  3 p   4.000
  | Found free-ion valence shell :  3 s   1.000
  | Found free-ion valence shell :  3 p   3.000
  | Found ionic basis function :  3 d , default cutoff radius.
  | Found hydrogenic basis function :  2 p   1.800
  | Found hydrogenic basis function :  4 f   7.000
  | Found ionic basis function :  3 s , default cutoff radius.
  | Found hydrogenic extended basis function :  5 g  10.800
  Species S                   : Missing cutoff potential type.
  Defaulting to exp(1/x)/(1-x)^2 type cutoff potential.
  Species S : No 'logarithmic' tag. Using default grid for free atom:
  | Default logarithmic grid data [bohr] : 0.1000E-03 0.1000E+03 0.1012E+01
  | Will include ionic basis functions of  2.0-fold positive S                    ion.
  Species S : On-site basis accuracy parameter (for Gram-Schmidt orthonormalisation) not specified.
  Using default value basis_acc =  0.1000000E-03.
  Species S                   : Using default innermost maximum threshold i_radial=  2 for radial functions.
  Species S                   : Default cutoff onset for free atom density etc. : 0.40000000E+01 AA.
  Species S                   : Basic radial grid will be enhanced according to radial_multiplier =   2, to contain    89 grid points.
 
  Reading configuration options for species Mo                  .
  | Found nuclear charge :  42.0000
  | Found atomic mass :    95.9400000000000      amu
  | Found l_max for Hartree potential  :   6
  | Found cutoff potl. onset [A], width [A], scale factor :    4.00000    2.00000    1.00000
  | Threshold for basis-dependent cutoff potential is   0.100000E-03
  | Found data for basic radial integration grid :    59 points, outermost radius =    7.000 A
  | Found multiplier for basic radial grid :   2
  | Found angular grid specification: user-specified.
  | Specified grid contains     6 separate shells.
  | Check grid settings after all constraints further below.
  | Found free-atom valence shell :  5 s   1.000
  | Found free-atom valence shell :  4 p   6.000
  | Found free-atom valence shell :  4 d   5.000
  | Found free-ion valence shell :  5 s   0.000
  | Found free-ion valence shell :  4 p   6.000
  | Found free-ion valence shell :  4 d   4.000
  | Found hydrogenic basis function :  4 f   8.400
  | Found hydrogenic basis function :  3 d   2.800
  | Found ionic basis function :  5 p , default cutoff radius.
  | Found hydrogenic extended basis function :  5 g  12.000
  | Found ionic basis function :  5 s , default cutoff radius.
  Species Mo                  : Missing cutoff potential type.
  Defaulting to exp(1/x)/(1-x)^2 type cutoff potential.
  Species Mo: No 'logarithmic' tag. Using default grid for free atom:
  | Default logarithmic grid data [bohr] : 0.1000E-03 0.1000E+03 0.1012E+01
  | Will include ionic basis functions of  2.0-fold positive Mo                   ion.
  Species Mo: On-site basis accuracy parameter (for Gram-Schmidt orthonormalisation) not specified.
  Using default value basis_acc =  0.1000000E-03.
  Species Mo                  : Using default innermost maximum threshold i_radial=  2 for radial functions.
  Species Mo                  : Default cutoff onset for free atom density etc. : 0.40000000E+01 AA.
  Species Mo                  : Basic radial grid will be enhanced according to radial_multiplier =   2, to contain   119 grid points.
 
  Reading configuration options for species W                   .
  | Found nuclear charge :  74.0000
  | Found atomic mass :    183.840000000000      amu
  | Found l_max for Hartree potential  :   6
  | Found cutoff potl. onset [A], width [A], scale factor :    4.00000    2.00000    1.00000
  | Threshold for basis-dependent cutoff potential is   0.100000E-03
  | Found data for basic radial integration grid :    71 points, outermost radius =    7.000 A
  | Found multiplier for basic radial grid :   2
  | Found angular grid specification: user-specified.
  | Specified grid contains     6 separate shells.
  | Check grid settings after all constraints further below.
  | Found free-atom valence shell :  6 s   2.000
  | Found free-atom valence shell :  5 p   6.000
  | Found free-atom valence shell :  5 d   4.000
  | Found free-atom valence shell :  4 f  14.000
  | Found free-ion valence shell :  6 s   1.000
  | Found free-ion valence shell :  5 p   6.000
  | Found free-ion valence shell :  5 d   3.000
  | Found free-ion valence shell :  4 f  14.000
  | Found hydrogenic basis function :  4 f   7.800
  | Found hydrogenic basis function :  4 d   5.800
  | Found ionic basis function :  6 p , default cutoff radius.
  | Found hydrogenic extended basis function :  5 g  12.400
  | Found ionic basis function :  6 s , default cutoff radius.
  Species W                   : Missing cutoff potential type.
  Defaulting to exp(1/x)/(1-x)^2 type cutoff potential.
  Species W : No 'logarithmic' tag. Using default grid for free atom:
  | Default logarithmic grid data [bohr] : 0.1000E-03 0.1000E+03 0.1012E+01
  | Will include ionic basis functions of  2.0-fold positive W                    ion.
  Species W : On-site basis accuracy parameter (for Gram-Schmidt orthonormalisation) not specified.
  Using default value basis_acc =  0.1000000E-03.
  Species W                   : Using default innermost maximum threshold i_radial=  2 for radial functions.
  Species W                   : Default cutoff onset for free atom density etc. : 0.40000000E+01 AA.
  Species W                   : Basic radial grid will be enhanced according to radial_multiplier =   2, to contain   143 grid points.
 
  Finished reading input file 'control.in'.
 
------------------------------------------------------------


------------------------------------------------------------
          Reading geometry description geometry.in.
------------------------------------------------------------
  Vacuum level in z-axis :   0.103344E+03
  Found keyword 'hessian_file', indicating that this is the continuation of a structure optimization.
  However, the control.in file does not request the geometry to be optimized.
  Ignoring the request for a file 'hessian.aims' to be present.
  | The smallest distance between any two atoms is         2.49405668 AA.
  | The first atom of this pair is atom number                     37 .
  | The second atom of this pair is atom number                    36 .
  | Wigner-Seitz cell of the first atom image           1     1     0 .
  | (The Wigner-Seitz cell of the second atom is 0 0 0  by definition.)

  Symmetry information by spglib:
  | Precision set to  0.1E-04
  | Number of Operations  : 1
  | Space group           : 1
  | International         : P1 z
  | Schoenflies           : C1^1
  Input structure read successfully.
  The structure contains       73 atoms,  and a total of       3482.000 electrons.

  Input geometry:
  | Unit cell:
  |       16.35742505        0.00000000        0.00000000
  |       -8.17073830       14.17072870        0.00000000
  |        0.00000000        0.00000000      103.34910518
  | Atomic structure:
  |       Atom                x [A]            y [A]            z [A]
  |    1: Species W            -0.00049962        0.94036330       51.71393765
  |    2: Species Se            1.65301613        1.91134839       53.36880748
  |    3: Species Se            1.63063546        1.89612656       50.03582231
  |    4: Species W            -1.62894313        3.78686779       51.72037781
  |    5: Species Se            0.02322187        4.77561264       53.36042279
  |    6: Species Se           -0.00600685        4.71535231       50.01988993
  |    7: Species W            -3.25397364        6.63717862       51.71424541
  |    8: Species Se           -1.53993597        7.66583335       53.32442408
  |    9: Species Se           -1.64389107        7.57293422       49.98931329
  |   10: Species W            -4.89045603        9.43710404       51.69201164
  |   11: Species Se           -3.15476798       10.38356740       53.30924617
  |   12: Species Se           -3.25243531       10.36081937       49.98587556
  |   13: Species W            -6.53825069       12.26804923       51.69319633
  |   14: Species Se           -4.87157604       13.20478165       53.34585712
  |   15: Species Se           -4.90796709       13.22581343       50.01238452
  |   16: Species W             3.27817356        0.94580152       51.69321346
  |   17: Species Se            4.91525064        1.90717097       53.35311995
  |   18: Species Se            4.91445630        1.88808240       50.01883658
  |   19: Species W             1.64762969        3.81130096       51.69164601
  |   20: Species Se            3.31796496        4.85148602       53.32020307
  |   21: Species Se            3.26592104        4.75187005       49.98578591
  |   22: Species W             0.02317816        6.64258947       51.64492864
  |   23: Species Se            1.69505248        7.64411332       53.25858413
  |   24: Species Se            1.66538673        7.55149068       49.93536393
  |   25: Species W            -1.50913604        9.50482302       51.58960486
  |   26: Species Se            0.00772004       10.38582160       49.80563872
  |   27: Species W            -3.23946852       12.26188622       51.64926979
  |   28: Species Se           -1.56995019       13.12675424       53.30922453
  |   29: Species Se           -1.59908200       13.22271373       49.98582150
  |   30: Species W             6.55374028        0.93240715       51.69202872
  |   31: Species Se            8.16294928        1.87948275       53.38606868
  |   32: Species Se            8.18727609        1.89500043       50.04266429
  |   33: Species W             4.90538697        3.81181104       51.66595105
  |   34: Species Se            6.48485408        4.81680549       53.33496751
  |   35: Species Se            6.56376250        4.73959241       50.00384785
  |   36: Species W             3.37952283        6.69351487       51.58407861
  |   37: Species Se            4.92404136        7.54550902       49.82087493
  |   38: Species W             1.56745231        9.48468850       51.54377789
  |   39: Species Se            3.22565148       10.29362510       53.25854183
  |   40: Species Se            3.29101378       10.36554807       49.93526616
  |   41: Species W             0.01323021       12.14004239       51.58951931
  |   42: Species Se            1.59095573       13.08526622       53.32433663
  |   43: Species Se            1.61950224       13.22174542       49.98922387
  |   44: Species W             9.79660876        0.91328485       51.71418232
  |   45: Species Se           11.43377047        1.85644370       53.39832551
  |   46: Species Se           11.44177760        1.88706789       50.06126945
  |   47: Species W             8.17266526        3.78908567       51.71698072
  |   48: Species Se            9.80081623        4.72809627       53.40474362
  |   49: Species Se            9.82254213        4.71552917       50.05807561
  |   50: Species W             6.43854091        6.67052569       51.60752195
  |   51: Species Se            8.06749640        7.55643759       53.33494636
  |   52: Species Se            8.17381354        7.52659844       50.00381664
  |   53: Species W             4.89055073        9.30923623       51.58396128
  |   54: Species Se            6.45550274       10.28262145       53.32014868
  |   55: Species Se            6.51583440       10.37745152       49.98566680
  |   56: Species W             3.25817034       12.24220786       51.64486512
  |   57: Species Se            4.87552606       13.17480086       53.36035423
  |   58: Species Se            4.91311579       13.23023823       50.01981265
  |   59: Species W            13.07756435        0.92925568       51.72035758
  |   60: Species Se           14.72280337        1.88444641       53.39006299
  |   61: Species Se           14.71448748        1.88926934       50.05237161
  |   62: Species W            11.44969864        3.77543872       51.74007713
  |   63: Species Se           13.10417256        4.74777763       53.39837610
  |   64: Species Se           13.08165116        4.72555600       50.06130697
  |   65: Species W             9.80092280        6.60760585       51.71696913
  |   66: Species Se           11.45039063        7.56993855       53.38606695
  |   67: Species Se           11.44911044        7.54106120       50.04270410
  |   68: Species W             8.14908850        9.42673016       51.66588318
  |   69: Species Se            9.80404172       10.36962098       53.35308330
  |   70: Species Se            9.82020561       10.37983003       50.01882382
  |   71: Species W             6.52226609       12.24920646       51.69154620
  |   72: Species Se            8.17090995       13.19361000       53.36875938
  |   73: Species Se            8.17294225       13.22062056       50.03580093

  Lattice parameters for 3D lattice (in Angstroms) :    16.357425   16.357583  103.349105
  Angle(s) between unit vectors (in degrees)       :    90.000000   90.000000  119.967434


  Quantities derived from the lattice vectors:
  | Reciprocal lattice vector 1:  0.384118  0.221480  0.000000
  | Reciprocal lattice vector 2: -0.000000  0.443392  0.000000
  | Reciprocal lattice vector 3:  0.000000  0.000000  0.060796
  | Unit cell volume                               :   0.239560E+05  A^3

  Fractional coordinates:
                         L1                L2                L3
       atom_frac         0.03311689        0.06635956        0.50038109  W
       atom_frac         0.16843028        0.13488004        0.51639351  Se
       atom_frac         0.16652548        0.13380586        0.48414374  Se
       atom_frac         0.03390125        0.26723169        0.50044340  W
       atom_frac         0.16975808        0.33700544        0.51631238  Se
       atom_frac         0.16584705        0.33275299        0.48398958  Se
       atom_frac         0.03502843        0.46837243        0.50038407  W
       atom_frac         0.17607462        0.54096254        0.51596406  Se
       atom_frac         0.16644474        0.53440683        0.48369372  Se
       atom_frac         0.03367944        0.66595757        0.50016893  W
       atom_frac         0.17315200        0.73274760        0.51581720  Se
       atom_frac         0.16637932        0.73114231        0.48366046  Se
       atom_frac         0.03273233        0.86573171        0.50018040  W
       atom_frac         0.16764278        0.93183505        0.51617145  Se
       atom_frac         0.16615940        0.93331922        0.48391696  Se
       atom_frac         0.23374802        0.06674332        0.50018056  W
       atom_frac         0.36771750        0.13458524        0.51624172  Se
       atom_frac         0.36699607        0.13323820        0.48397939  Se
       atom_frac         0.23507354        0.26895589        0.50016539  W
       atom_frac         0.37385446        0.34235967        0.51592322  Se
       atom_frac         0.36716136        0.33532997        0.48365959  Se
       atom_frac         0.23556559        0.46875426        0.49971336  W
       atom_frac         0.37307780        0.53942980        0.51532700  Se
       atom_frac         0.36799930        0.53289360        0.48317171  Se
       atom_frac         0.24278120        0.67073636        0.49917805  W
       atom_frac         0.36656800        0.73290667        0.48191650  Se
       atom_frac         0.23418388        0.86529680        0.49975537  W
       atom_frac         0.36673499        0.92632881        0.51581699  Se
       atom_frac         0.36833657        0.93310048        0.48365994  Se
       atom_frac         0.43352541        0.06579811        0.50016910  W
       atom_frac         0.56528734        0.13263134        0.51656053  Se
       atom_frac         0.56732153        0.13372639        0.48420994  Se
       atom_frac         0.43425229        0.26899189        0.49991677  W
       atom_frac         0.56623758        0.33991234        0.51606608  Se
       atom_frac         0.56833986        0.33446356        0.48383436  Se
       atom_frac         0.44254853        0.47234797        0.49912458  W
       atom_frac         0.56700407        0.53247149        0.48206392  Se
       atom_frac         0.43015659        0.66931551        0.49873463  W
       atom_frac         0.56004415        0.72640055        0.51532659  Se
       atom_frac         0.56657529        0.73147601        0.48317076  Se
       atom_frac         0.42874044        0.85669853        0.49917722  W
       atom_frac         0.55851238        0.92340108        0.51596322  Se
       atom_frac         0.56506838        0.93303215        0.48369286  Se
       atom_frac         0.63110191        0.06444869        0.50038345  W
       atom_frac         0.76443464        0.13100552        0.51667913  Se
       atom_frac         0.76600364        0.13316661        0.48438997  Se
       atom_frac         0.63319405        0.26738820        0.50041053  W
       atom_frac         0.76582970        0.33365230        0.51674123  Se
       atom_frac         0.76671491        0.33276547        0.48435906  Se
       atom_frac         0.62874915        0.47072566        0.49935142  W
       atom_frac         0.75956227        0.53324270        0.51606587  Se
       atom_frac         0.76501008        0.53113701        0.48383406  Se
       atom_frac         0.62712732        0.65693419        0.49912344  W
       atom_frac         0.75711103        0.72562404        0.51592269  Se
       atom_frac         0.76414208        0.73231601        0.48365844  Se
       atom_frac         0.63071893        0.86390814        0.49971275  W
       atom_frac         0.76246840        0.92971936        0.51631172  Se
       atom_frac         0.76672057        0.93363147        0.48398883  Se
       atom_frac         0.83224385        0.06557572        0.50044321  W
       atom_frac         0.96649450        0.13298162        0.51659918  Se
       atom_frac         0.96615612        0.13332196        0.48430387  Se
       atom_frac         0.83305220        0.26642516        0.50063401  W
       atom_frac         0.96847189        0.33504118        0.51667962  Se
       atom_frac         0.96631176        0.33347304        0.48439033  Se
       atom_frac         0.83208817        0.46628554        0.50041042  W
       atom_frac         0.96684910        0.53419543        0.51656051  Se
       atom_frac         0.96575292        0.53215762        0.48421033  Se
       atom_frac         0.83047741        0.66522551        0.49991612  W
       atom_frac         0.96488837        0.73176343        0.51624137  Se
       atom_frac         0.96623640        0.73248386        0.48397926  Se
       atom_frac         0.83051389        0.86440202        0.50016443  W
       atom_frac         0.96459245        0.93104669        0.51639305  Se
       atom_frac         0.96566881        0.93295277        0.48414353  Se

  Initial moments and charges:
  |  Atom   Moment         Charge        Species
  |     1   0.100000E+01   0.000000E+00   W
  |     2   0.100000E+01   0.000000E+00   Se
  |     3   0.100000E+01   0.000000E+00   Se
  |     4   0.100000E+01   0.000000E+00   W
  |     5   0.100000E+01   0.000000E+00   Se
  |     6   0.100000E+01   0.000000E+00   Se
  |     7   0.100000E+01   0.000000E+00   W
  |     8   0.100000E+01   0.000000E+00   Se
  |     9   0.100000E+01   0.000000E+00   Se
  |    10   0.100000E+01   0.000000E+00   W
  |    11   0.100000E+01   0.000000E+00   Se
  |    12   0.100000E+01   0.000000E+00   Se
  |    13   0.100000E+01   0.000000E+00   W
  |    14   0.100000E+01   0.000000E+00   Se
  |    15   0.100000E+01   0.000000E+00   Se
  |    16   0.100000E+01   0.000000E+00   W
  |    17   0.100000E+01   0.000000E+00   Se
  |    18   0.100000E+01   0.000000E+00   Se
  |    19   0.100000E+01   0.000000E+00   W
  |    20   0.100000E+01   0.000000E+00   Se
  |    21   0.100000E+01   0.000000E+00   Se
  |    22   0.100000E+01   0.000000E+00   W
  |    23   0.100000E+01   0.000000E+00   Se
  |    24   0.100000E+01   0.000000E+00   Se
  |    25   0.100000E+01   0.000000E+00   W
  |    26   0.100000E+01   0.000000E+00   Se
  |    27   0.100000E+01   0.000000E+00   W
  |    28   0.100000E+01   0.000000E+00   Se
  |    29   0.100000E+01   0.000000E+00   Se
  |    30   0.100000E+01   0.000000E+00   W
  |    31   0.100000E+01   0.000000E+00   Se
  |    32   0.100000E+01   0.000000E+00   Se
  |    33   0.100000E+01   0.000000E+00   W
  |    34   0.100000E+01   0.000000E+00   Se
  |    35   0.100000E+01   0.000000E+00   Se
  |    36   0.100000E+01   0.000000E+00   W
  |    37   0.100000E+01   0.000000E+00   Se
  |    38   0.100000E+01   0.000000E+00   W
  |    39   0.100000E+01   0.000000E+00   Se
  |    40   0.100000E+01   0.000000E+00   Se
  |    41   0.100000E+01   0.000000E+00   W
  |    42   0.100000E+01   0.000000E+00   Se
  |    43   0.100000E+01   0.000000E+00   Se
  |    44   0.100000E+01   0.000000E+00   W
  |    45   0.100000E+01   0.000000E+00   Se
  |    46   0.100000E+01   0.000000E+00   Se
  |    47   0.100000E+01   0.000000E+00   W
  |    48   0.100000E+01   0.000000E+00   Se
  |    49   0.100000E+01   0.000000E+00   Se
  |    50   0.100000E+01   0.000000E+00   W
  |    51   0.100000E+01   0.000000E+00   Se
  |    52   0.100000E+01   0.000000E+00   Se
  |    53   0.100000E+01   0.000000E+00   W
  |    54   0.100000E+01   0.000000E+00   Se
  |    55   0.100000E+01   0.000000E+00   Se
  |    56   0.100000E+01   0.000000E+00   W
  |    57   0.100000E+01   0.000000E+00   Se
  |    58   0.100000E+01   0.000000E+00   Se
  |    59   0.100000E+01   0.000000E+00   W
  |    60   0.100000E+01   0.000000E+00   Se
  |    61   0.100000E+01   0.000000E+00   Se
  |    62   0.100000E+01   0.000000E+00   W
  |    63   0.100000E+01   0.000000E+00   Se
  |    64   0.100000E+01   0.000000E+00   Se
  |    65   0.100000E+01   0.000000E+00   W
  |    66   0.100000E+01   0.000000E+00   Se
  |    67   0.100000E+01   0.000000E+00   Se
  |    68   0.100000E+01   0.000000E+00   W
  |    69   0.100000E+01   0.000000E+00   Se
  |    70   0.100000E+01   0.000000E+00   Se
  |    71   0.100000E+01   0.000000E+00   W
  |    72   0.100000E+01   0.000000E+00   Se
  |    73   0.100000E+01   0.000000E+00   Se

 
  Finished reading input file 'control.in'.
 

------------------------------------------------------------
          Reading geometry description geometry.in.
------------------------------------------------------------
 
  Consistency checks for stacksize environment parameter are next.
 
  | Maximum stacksize for task 0: unlimited
  | Maximum stacksize for task 1: unlimited
  | Maximum stacksize for task 2: unlimited
  | Maximum stacksize for task 3: unlimited
  | Maximum stacksize for task 4: unlimited
  | Maximum stacksize for task 5: unlimited
  | Maximum stacksize for task 6: unlimited
  | Maximum stacksize for task 7: unlimited
  | Maximum stacksize for task 8: unlimited
  | Maximum stacksize for task 9: unlimited
  | Maximum stacksize for task 10: unlimited
  | Maximum stacksize for task 11: unlimited
  | Maximum stacksize for task 12: unlimited
  | Maximum stacksize for task 13: unlimited
  | Maximum stacksize for task 14: unlimited
  | Maximum stacksize for task 15: unlimited
  | Maximum stacksize for task 16: unlimited
  | Maximum stacksize for task 17: unlimited
  | Maximum stacksize for task 18: unlimited
  | Maximum stacksize for task 19: unlimited
  | Maximum stacksize for task 20: unlimited
  | Maximum stacksize for task 21: unlimited
  | Maximum stacksize for task 22: unlimited
  | Maximum stacksize for task 23: unlimited
  | Maximum stacksize for task 24: unlimited
  | Maximum stacksize for task 25: unlimited
  | Maximum stacksize for task 26: unlimited
  | Maximum stacksize for task 27: unlimited
  | Maximum stacksize for task 28: unlimited
  | Maximum stacksize for task 29: unlimited
  | Maximum stacksize for task 30: unlimited
  | Maximum stacksize for task 31: unlimited
  | Maximum stacksize for task 32: unlimited
  | Maximum stacksize for task 33: unlimited
  | Maximum stacksize for task 34: unlimited
  | Maximum stacksize for task 35: unlimited
  | Maximum stacksize for task 36: unlimited
  | Maximum stacksize for task 37: unlimited
  | Maximum stacksize for task 38: unlimited
  | Maximum stacksize for task 39: unlimited
  | Maximum stacksize for task 40: unlimited
  | Maximum stacksize for task 41: unlimited
  | Maximum stacksize for task 42: unlimited
  | Maximum stacksize for task 43: unlimited
  | Maximum stacksize for task 44: unlimited
  | Maximum stacksize for task 45: unlimited
  | Maximum stacksize for task 46: unlimited
  | Maximum stacksize for task 47: unlimited
  | Maximum stacksize for task 48: unlimited
  | Maximum stacksize for task 49: unlimited
  | Maximum stacksize for task 50: unlimited
  | Maximum stacksize for task 51: unlimited
  | Maximum stacksize for task 52: unlimited
  | Maximum stacksize for task 53: unlimited
  | Maximum stacksize for task 54: unlimited
  | Maximum stacksize for task 55: unlimited
  | Maximum stacksize for task 56: unlimited
  | Maximum stacksize for task 57: unlimited
  | Maximum stacksize for task 58: unlimited
  | Maximum stacksize for task 59: unlimited
  | Maximum stacksize for task 60: unlimited
  | Maximum stacksize for task 61: unlimited
  | Maximum stacksize for task 62: unlimited
  | Maximum stacksize for task 63: unlimited
  | Maximum stacksize for task 64: unlimited
  | Maximum stacksize for task 65: unlimited
  | Maximum stacksize for task 66: unlimited
  | Maximum stacksize for task 67: unlimited
  | Maximum stacksize for task 68: unlimited
  | Maximum stacksize for task 69: unlimited
  | Maximum stacksize for task 70: unlimited
  | Maximum stacksize for task 71: unlimited
  | Maximum stacksize for task 72: unlimited
  | Maximum stacksize for task 73: unlimited
  | Maximum stacksize for task 74: unlimited
  | Maximum stacksize for task 75: unlimited
  | Maximum stacksize for task 76: unlimited
  | Maximum stacksize for task 77: unlimited
  | Maximum stacksize for task 78: unlimited
  | Maximum stacksize for task 79: unlimited
  | Maximum stacksize for task 80: unlimited
  | Maximum stacksize for task 81: unlimited
  | Maximum stacksize for task 82: unlimited
  | Maximum stacksize for task 83: unlimited
  | Maximum stacksize for task 84: unlimited
  | Maximum stacksize for task 85: unlimited
  | Maximum stacksize for task 86: unlimited
  | Maximum stacksize for task 87: unlimited
  | Maximum stacksize for task 88: unlimited
  | Maximum stacksize for task 89: unlimited
  | Maximum stacksize for task 90: unlimited
  | Maximum stacksize for task 91: unlimited
  | Maximum stacksize for task 92: unlimited
  | Maximum stacksize for task 93: unlimited
  | Maximum stacksize for task 94: unlimited
  | Maximum stacksize for task 95: unlimited
  | Maximum stacksize for task 96: unlimited
  | Maximum stacksize for task 97: unlimited
  | Maximum stacksize for task 98: unlimited
  | Maximum stacksize for task 99: unlimited
  | Maximum stacksize for task 100: unlimited
  | Maximum stacksize for task 101: unlimited
  | Maximum stacksize for task 102: unlimited
  | Maximum stacksize for task 103: unlimited
  | Maximum stacksize for task 104: unlimited
  | Maximum stacksize for task 105: unlimited
  | Maximum stacksize for task 106: unlimited
  | Maximum stacksize for task 107: unlimited
  | Maximum stacksize for task 108: unlimited
  | Maximum stacksize for task 109: unlimited
  | Maximum stacksize for task 110: unlimited
  | Maximum stacksize for task 111: unlimited
  | Maximum stacksize for task 112: unlimited
  | Maximum stacksize for task 113: unlimited
  | Maximum stacksize for task 114: unlimited
  | Maximum stacksize for task 115: unlimited
  | Maximum stacksize for task 116: unlimited
  | Maximum stacksize for task 117: unlimited
  | Maximum stacksize for task 118: unlimited
  | Maximum stacksize for task 119: unlimited
  | Maximum stacksize for task 120: unlimited
  | Maximum stacksize for task 121: unlimited
  | Maximum stacksize for task 122: unlimited
  | Maximum stacksize for task 123: unlimited
  | Maximum stacksize for task 124: unlimited
  | Maximum stacksize for task 125: unlimited
  | Maximum stacksize for task 126: unlimited
  | Maximum stacksize for task 127: unlimited
  | Maximum stacksize for task 128: unlimited
  | Maximum stacksize for task 129: unlimited
  | Maximum stacksize for task 130: unlimited
  | Maximum stacksize for task 131: unlimited
  | Maximum stacksize for task 132: unlimited
  | Maximum stacksize for task 133: unlimited
  | Maximum stacksize for task 134: unlimited
  | Maximum stacksize for task 135: unlimited
  | Maximum stacksize for task 136: unlimited
  | Maximum stacksize for task 137: unlimited
  | Maximum stacksize for task 138: unlimited
  | Maximum stacksize for task 139: unlimited
  | Maximum stacksize for task 140: unlimited
  | Maximum stacksize for task 141: unlimited
  | Maximum stacksize for task 142: unlimited
  | Maximum stacksize for task 143: unlimited
  | Maximum stacksize for task 144: unlimited
  | Maximum stacksize for task 145: unlimited
  | Maximum stacksize for task 146: unlimited
  | Maximum stacksize for task 147: unlimited
  | Maximum stacksize for task 148: unlimited
  | Maximum stacksize for task 149: unlimited
  | Maximum stacksize for task 150: unlimited
  | Maximum stacksize for task 151: unlimited
  | Maximum stacksize for task 152: unlimited
  | Maximum stacksize for task 153: unlimited
  | Maximum stacksize for task 154: unlimited
  | Maximum stacksize for task 155: unlimited
  | Maximum stacksize for task 156: unlimited
  | Maximum stacksize for task 157: unlimited
  | Maximum stacksize for task 158: unlimited
  | Maximum stacksize for task 159: unlimited
  | Maximum stacksize for task 160: unlimited
  | Maximum stacksize for task 161: unlimited
  | Maximum stacksize for task 162: unlimited
  | Maximum stacksize for task 163: unlimited
  | Maximum stacksize for task 164: unlimited
  | Maximum stacksize for task 165: unlimited
  | Maximum stacksize for task 166: unlimited
  | Maximum stacksize for task 167: unlimited
  | Maximum stacksize for task 168: unlimited
  | Maximum stacksize for task 169: unlimited
  | Maximum stacksize for task 170: unlimited
  | Maximum stacksize for task 171: unlimited
  | Maximum stacksize for task 172: unlimited
  | Maximum stacksize for task 173: unlimited
  | Maximum stacksize for task 174: unlimited
  | Maximum stacksize for task 175: unlimited
  | Maximum stacksize for task 176: unlimited
  | Maximum stacksize for task 177: unlimited
  | Maximum stacksize for task 178: unlimited
  | Maximum stacksize for task 179: unlimited
  | Maximum stacksize for task 180: unlimited
  | Maximum stacksize for task 181: unlimited
  | Maximum stacksize for task 182: unlimited
  | Maximum stacksize for task 183: unlimited
  | Maximum stacksize for task 184: unlimited
  | Maximum stacksize for task 185: unlimited
  | Maximum stacksize for task 186: unlimited
  | Maximum stacksize for task 187: unlimited
  | Maximum stacksize for task 188: unlimited
  | Maximum stacksize for task 189: unlimited
  | Maximum stacksize for task 190: unlimited
  | Maximum stacksize for task 191: unlimited
  | Maximum stacksize for task 192: unlimited
  | Maximum stacksize for task 193: unlimited
  | Maximum stacksize for task 194: unlimited
  | Maximum stacksize for task 195: unlimited
  | Maximum stacksize for task 196: unlimited
  | Maximum stacksize for task 197: unlimited
  | Maximum stacksize for task 198: unlimited
  | Maximum stacksize for task 199: unlimited
  | Maximum stacksize for task 200: unlimited
  | Maximum stacksize for task 201: unlimited
  | Maximum stacksize for task 202: unlimited
  | Maximum stacksize for task 203: unlimited
  | Maximum stacksize for task 204: unlimited
  | Maximum stacksize for task 205: unlimited
  | Maximum stacksize for task 206: unlimited
  | Maximum stacksize for task 207: unlimited
  | Maximum stacksize for task 208: unlimited
  | Maximum stacksize for task 209: unlimited
  | Maximum stacksize for task 210: unlimited
  | Maximum stacksize for task 211: unlimited
  | Maximum stacksize for task 212: unlimited
  | Maximum stacksize for task 213: unlimited
  | Maximum stacksize for task 214: unlimited
  | Maximum stacksize for task 215: unlimited
  | Maximum stacksize for task 216: unlimited
  | Maximum stacksize for task 217: unlimited
  | Maximum stacksize for task 218: unlimited
  | Maximum stacksize for task 219: unlimited
  | Maximum stacksize for task 220: unlimited
  | Maximum stacksize for task 221: unlimited
  | Maximum stacksize for task 222: unlimited
  | Maximum stacksize for task 223: unlimited
  | Maximum stacksize for task 224: unlimited
  | Maximum stacksize for task 225: unlimited
  | Maximum stacksize for task 226: unlimited
  | Maximum stacksize for task 227: unlimited
  | Maximum stacksize for task 228: unlimited
  | Maximum stacksize for task 229: unlimited
  | Maximum stacksize for task 230: unlimited
  | Maximum stacksize for task 231: unlimited
  | Maximum stacksize for task 232: unlimited
  | Maximum stacksize for task 233: unlimited
  | Maximum stacksize for task 234: unlimited
  | Maximum stacksize for task 235: unlimited
  | Maximum stacksize for task 236: unlimited
  | Maximum stacksize for task 237: unlimited
  | Maximum stacksize for task 238: unlimited
  | Maximum stacksize for task 239: unlimited
  | Maximum stacksize for task 240: unlimited
  | Maximum stacksize for task 241: unlimited
  | Maximum stacksize for task 242: unlimited
  | Maximum stacksize for task 243: unlimited
  | Maximum stacksize for task 244: unlimited
  | Maximum stacksize for task 245: unlimited
  | Maximum stacksize for task 246: unlimited
  | Maximum stacksize for task 247: unlimited
  | Maximum stacksize for task 248: unlimited
  | Maximum stacksize for task 249: unlimited
  | Maximum stacksize for task 250: unlimited
  | Maximum stacksize for task 251: unlimited
  | Maximum stacksize for task 252: unlimited
  | Maximum stacksize for task 253: unlimited
  | Maximum stacksize for task 254: unlimited
  | Maximum stacksize for task 255: unlimited
  | Maximum stacksize for task 256: unlimited
  | Maximum stacksize for task 257: unlimited
  | Maximum stacksize for task 258: unlimited
  | Maximum stacksize for task 259: unlimited
  | Maximum stacksize for task 260: unlimited
  | Maximum stacksize for task 261: unlimited
  | Maximum stacksize for task 262: unlimited
  | Maximum stacksize for task 263: unlimited
  | Maximum stacksize for task 264: unlimited
  | Maximum stacksize for task 265: unlimited
  | Maximum stacksize for task 266: unlimited
  | Maximum stacksize for task 267: unlimited
  | Maximum stacksize for task 268: unlimited
  | Maximum stacksize for task 269: unlimited
  | Maximum stacksize for task 270: unlimited
  | Maximum stacksize for task 271: unlimited
  | Maximum stacksize for task 272: unlimited
  | Maximum stacksize for task 273: unlimited
  | Maximum stacksize for task 274: unlimited
  | Maximum stacksize for task 275: unlimited
  | Maximum stacksize for task 276: unlimited
  | Maximum stacksize for task 277: unlimited
  | Maximum stacksize for task 278: unlimited
  | Maximum stacksize for task 279: unlimited
  | Maximum stacksize for task 280: unlimited
  | Maximum stacksize for task 281: unlimited
  | Maximum stacksize for task 282: unlimited
  | Maximum stacksize for task 283: unlimited
  | Maximum stacksize for task 284: unlimited
  | Maximum stacksize for task 285: unlimited
  | Maximum stacksize for task 286: unlimited
  | Maximum stacksize for task 287: unlimited
  | Current stacksize for task 0: unlimited
  | Current stacksize for task 1: unlimited
  | Current stacksize for task 2: unlimited
  | Current stacksize for task 3: unlimited
  | Current stacksize for task 4: unlimited
  | Current stacksize for task 5: unlimited
  | Current stacksize for task 6: unlimited
  | Current stacksize for task 7: unlimited
  | Current stacksize for task 8: unlimited
  | Current stacksize for task 9: unlimited
  | Current stacksize for task 10: unlimited
  | Current stacksize for task 11: unlimited
  | Current stacksize for task 12: unlimited
  | Current stacksize for task 13: unlimited
  | Current stacksize for task 14: unlimited
  | Current stacksize for task 15: unlimited
  | Current stacksize for task 16: unlimited
  | Current stacksize for task 17: unlimited
  | Current stacksize for task 18: unlimited
  | Current stacksize for task 19: unlimited
  | Current stacksize for task 20: unlimited
  | Current stacksize for task 21: unlimited
  | Current stacksize for task 22: unlimited
  | Current stacksize for task 23: unlimited
  | Current stacksize for task 24: unlimited
  | Current stacksize for task 25: unlimited
  | Current stacksize for task 26: unlimited
  | Current stacksize for task 27: unlimited
  | Current stacksize for task 28: unlimited
  | Current stacksize for task 29: unlimited
  | Current stacksize for task 30: unlimited
  | Current stacksize for task 31: unlimited
  | Current stacksize for task 32: unlimited
  | Current stacksize for task 33: unlimited
  | Current stacksize for task 34: unlimited
  | Current stacksize for task 35: unlimited
  | Current stacksize for task 36: unlimited
  | Current stacksize for task 37: unlimited
  | Current stacksize for task 38: unlimited
  | Current stacksize for task 39: unlimited
  | Current stacksize for task 40: unlimited
  | Current stacksize for task 41: unlimited
  | Current stacksize for task 42: unlimited
  | Current stacksize for task 43: unlimited
  | Current stacksize for task 44: unlimited
  | Current stacksize for task 45: unlimited
  | Current stacksize for task 46: unlimited
  | Current stacksize for task 47: unlimited
  | Current stacksize for task 48: unlimited
  | Current stacksize for task 49: unlimited
  | Current stacksize for task 50: unlimited
  | Current stacksize for task 51: unlimited
  | Current stacksize for task 52: unlimited
  | Current stacksize for task 53: unlimited
  | Current stacksize for task 54: unlimited
  | Current stacksize for task 55: unlimited
  | Current stacksize for task 56: unlimited
  | Current stacksize for task 57: unlimited
  | Current stacksize for task 58: unlimited
  | Current stacksize for task 59: unlimited
  | Current stacksize for task 60: unlimited
  | Current stacksize for task 61: unlimited
  | Current stacksize for task 62: unlimited
  | Current stacksize for task 63: unlimited
  | Current stacksize for task 64: unlimited
  | Current stacksize for task 65: unlimited
  | Current stacksize for task 66: unlimited
  | Current stacksize for task 67: unlimited
  | Current stacksize for task 68: unlimited
  | Current stacksize for task 69: unlimited
  | Current stacksize for task 70: unlimited
  | Current stacksize for task 71: unlimited
  | Current stacksize for task 72: unlimited
  | Current stacksize for task 73: unlimited
  | Current stacksize for task 74: unlimited
  | Current stacksize for task 75: unlimited
  | Current stacksize for task 76: unlimited
  | Current stacksize for task 77: unlimited
  | Current stacksize for task 78: unlimited
  | Current stacksize for task 79: unlimited
  | Current stacksize for task 80: unlimited
  | Current stacksize for task 81: unlimited
  | Current stacksize for task 82: unlimited
  | Current stacksize for task 83: unlimited
  | Current stacksize for task 84: unlimited
  | Current stacksize for task 85: unlimited
  | Current stacksize for task 86: unlimited
  | Current stacksize for task 87: unlimited
  | Current stacksize for task 88: unlimited
  | Current stacksize for task 89: unlimited
  | Current stacksize for task 90: unlimited
  | Current stacksize for task 91: unlimited
  | Current stacksize for task 92: unlimited
  | Current stacksize for task 93: unlimited
  | Current stacksize for task 94: unlimited
  | Current stacksize for task 95: unlimited
  | Current stacksize for task 96: unlimited
  | Current stacksize for task 97: unlimited
  | Current stacksize for task 98: unlimited
  | Current stacksize for task 99: unlimited
  | Current stacksize for task 100: unlimited
  | Current stacksize for task 101: unlimited
  | Current stacksize for task 102: unlimited
  | Current stacksize for task 103: unlimited
  | Current stacksize for task 104: unlimited
  | Current stacksize for task 105: unlimited
  | Current stacksize for task 106: unlimited
  | Current stacksize for task 107: unlimited
  | Current stacksize for task 108: unlimited
  | Current stacksize for task 109: unlimited
  | Current stacksize for task 110: unlimited
  | Current stacksize for task 111: unlimited
  | Current stacksize for task 112: unlimited
  | Current stacksize for task 113: unlimited
  | Current stacksize for task 114: unlimited
  | Current stacksize for task 115: unlimited
  | Current stacksize for task 116: unlimited
  | Current stacksize for task 117: unlimited
  | Current stacksize for task 118: unlimited
  | Current stacksize for task 119: unlimited
  | Current stacksize for task 120: unlimited
  | Current stacksize for task 121: unlimited
  | Current stacksize for task 122: unlimited
  | Current stacksize for task 123: unlimited
  | Current stacksize for task 124: unlimited
  | Current stacksize for task 125: unlimited
  | Current stacksize for task 126: unlimited
[...]
  |    29       34.059559       -0.059559        7.880038       15.931808       10.200648        0.047065
  |    30       73.847830        0.152170       10.363868       24.744029       24.630515       14.109419
  |    31       34.082508       -0.082508        7.885674       15.956601       10.194587        0.045645
  |    32       34.079699       -0.079699        7.881261       15.947242       10.202970        0.048226
  |    33       73.869901        0.130099       10.368055       24.752772       24.637065       14.112011
  |    34       34.089618       -0.089618        7.888238       15.959971       10.196406        0.045003
  |    35       34.057648       -0.057648        7.879190       15.927001       10.203520        0.047937
  |    36       73.851776        0.148224       10.427486       24.743105       24.584357       14.096828
  |    37       34.076189       -0.076189        7.874915       15.938094       10.209630        0.053551
  |    38       73.864081        0.135919       10.431604       24.752290       24.580258       14.099929
  |    39       34.101298       -0.101298        7.890896       15.967711       10.198560        0.044131
  |    40       34.042069       -0.042069        7.876783       15.913807       10.203834        0.047645
  |    41       73.848743        0.151257       10.430003       24.746695       24.573415       14.098630
  |    42       34.091483       -0.091483        7.888458       15.966897       10.192131        0.043996
  |    43       34.059938       -0.059938        7.879390       15.931084       10.201950        0.047513
  |    44       73.844533        0.155467       10.363032       24.741778       24.631539       14.108185
  |    45       34.081798       -0.081798        7.885315       15.958437       10.192737        0.045309
  |    46       34.078926       -0.078926        7.881903       15.949440       10.200198        0.047386
  |    47       73.844598        0.155402       10.361165       24.741169       24.633648       14.108616
  |    48       34.082126       -0.082126        7.885785       15.954259       10.196048        0.046035
  |    49       34.078465       -0.078465        7.881255       15.943724       10.204753        0.048734
  |    50       73.842346        0.157654       10.426758       24.744724       24.572112       14.098752
  |    51       34.089817       -0.089817        7.888215       15.960178       10.196418        0.045005
  |    52       34.057568       -0.057568        7.879192       15.926929       10.203512        0.047935
  |    53       73.851741        0.148259       10.427517       24.743048       24.584349       14.096827
  |    54       34.090833       -0.090833        7.888044       15.966070       10.192583        0.044135
  |    55       34.059735       -0.059735        7.879547       15.931256       10.201490        0.047442
  |    56       73.875557        0.124443       10.367834       24.750365       24.646688       14.110669
  |    57       34.074897       -0.074897        7.885043       15.948091       10.195966        0.045796
  |    58       34.082211       -0.082211        7.882918       15.951548       10.200513        0.047233
  |    59       73.843893        0.156107       10.363200       24.746445       24.622853       14.111395
  |    60       34.077187       -0.077187        7.884874       15.952397       10.194233        0.045683
  |    61       34.078247       -0.078247        7.883057       15.948229       10.199752        0.047209
  |    62       73.838767        0.161233       10.361078       24.744062       24.623240       14.110387
  |    63       34.081803       -0.081803        7.885310       15.958451       10.192733        0.045309
  |    64       34.078940       -0.078940        7.881912       15.949434       10.200205        0.047388
  |    65       73.844493        0.155507       10.361073       24.741233       24.633573       14.108614
  |    66       34.082729       -0.082729        7.885738       15.956753       10.194592        0.045646
  |    67       34.079878       -0.079878        7.881321       15.947344       10.202984        0.048230
  |    68       73.870515        0.129485       10.368417       24.752897       24.637195       14.112006
  |    69       34.074747       -0.074747        7.884675       15.951979       10.192959        0.045134
  |    70       34.083591       -0.083591        7.883799       15.958183       10.195703        0.045905
  |    71       73.849246        0.150754       10.365055       24.744371       24.630701       14.109119
  |    72       34.078179       -0.078179        7.884756       15.955939       10.192299        0.045186
  |    73       34.080090       -0.080090        7.883118       15.952798       10.197585        0.046588
  |
  | Total     3482.000000       -0.000000
 
  Summary of the per-atom spin analysis:
  |
  |  atom   spin      l=0         l=1         l=2         l=3
  |     1   -0.000001   -0.000000   -0.000000   -0.000000   -0.000000
  |     2   -0.000000    0.000000   -0.000000    0.000000   -0.000000
  |     3   -0.000000    0.000000   -0.000000    0.000000   -0.000000
  |     4    0.000002    0.000000    0.000000    0.000002   -0.000000
  |     5   -0.000001   -0.000000   -0.000001    0.000000    0.000000
  |     6   -0.000001   -0.000000   -0.000001    0.000000    0.000000
  |     7   -0.000002   -0.000000   -0.000000   -0.000001   -0.000000
  |     8    0.000000    0.000000    0.000000   -0.000000   -0.000000
  |     9    0.000000    0.000000    0.000000   -0.000000   -0.000000
  |    10    0.000002    0.000000    0.000000    0.000002   -0.000000
  |    11   -0.000000    0.000000   -0.000000   -0.000000   -0.000000
  |    12   -0.000000   -0.000000   -0.000000    0.000000   -0.000000
  |    13    0.000001   -0.000000    0.000000    0.000001   -0.000000
  |    14   -0.000001   -0.000000   -0.000001    0.000000    0.000000
  |    15   -0.000001   -0.000000   -0.000001    0.000000    0.000000
  |    16    0.000001   -0.000000    0.000000    0.000001   -0.000000
  |    17   -0.000001   -0.000000   -0.000001    0.000000    0.000000
  |    18   -0.000001   -0.000000   -0.000001    0.000000    0.000000
  |    19   -0.000001   -0.000000   -0.000000   -0.000001   -0.000000
  |    20   -0.000000   -0.000000   -0.000000    0.000000    0.000000
  |    21   -0.000001   -0.000000   -0.000001    0.000000    0.000000
  |    22    0.000005    0.000000    0.000001    0.000004   -0.000000
  |    23   -0.000002   -0.000000   -0.000002    0.000000    0.000000
  |    24   -0.000003   -0.000000   -0.000002    0.000000    0.000000
  |    25   -0.000010   -0.000001   -0.000001   -0.000008    0.000000
  |    26   -0.000000   -0.000000   -0.000000    0.000000    0.000000
  |    27    0.000005    0.000000    0.000001    0.000004    0.000000
  |    28   -0.000000    0.000000   -0.000000   -0.000000   -0.000000
  |    29   -0.000000   -0.000000   -0.000000    0.000000   -0.000000
  |    30    0.000002    0.000000    0.000000    0.000002   -0.000000
  |    31   -0.000001   -0.000000   -0.000001    0.000000    0.000000
  |    32   -0.000001   -0.000000   -0.000000    0.000000    0.000000
  |    33    0.000003    0.000000    0.000000    0.000003   -0.000000
  |    34   -0.000000   -0.000000   -0.000000    0.000000    0.000000
  |    35   -0.000001   -0.000000   -0.000001    0.000000    0.000000
  |    36    0.000000   -0.000000   -0.000000    0.000001   -0.000000
  |    37    0.000000    0.000000   -0.000000    0.000000    0.000000
  |    38    0.000020    0.000002    0.000002    0.000016   -0.000000
  |    39   -0.000002   -0.000000   -0.000002    0.000000    0.000000
  |    40   -0.000003   -0.000000   -0.000002    0.000000    0.000000
  |    41   -0.000010   -0.000001   -0.000001   -0.000008    0.000000
  |    42    0.000000    0.000000    0.000000   -0.000000   -0.000000
  |    43    0.000000    0.000000    0.000000   -0.000000   -0.000000
  |    44   -0.000002   -0.000000   -0.000000   -0.000001   -0.000000
  |    45   -0.000000    0.000000   -0.000000    0.000000    0.000000
  |    46   -0.000000   -0.000000   -0.000000    0.000000    0.000000
  |    47    0.000002   -0.000000    0.000000    0.000002   -0.000000
  |    48   -0.000001   -0.000000   -0.000001    0.000000    0.000000
  |    49   -0.000001   -0.000000   -0.000001    0.000000    0.000000
  |    50   -0.000002   -0.000000   -0.000000   -0.000001   -0.000000
  |    51   -0.000000   -0.000000   -0.000000    0.000000    0.000000
  |    52   -0.000001   -0.000000   -0.000001    0.000000    0.000000
  |    53    0.000000   -0.000000   -0.000000    0.000001   -0.000000
  |    54   -0.000000   -0.000000   -0.000000    0.000000    0.000000
  |    55   -0.000001   -0.000000   -0.000001    0.000000    0.000000
  |    56    0.000005    0.000000    0.000001    0.000004   -0.000000
  |    57   -0.000001   -0.000000   -0.000001    0.000000    0.000000
  |    58   -0.000001   -0.000000   -0.000001    0.000000    0.000000
  |    59    0.000002    0.000000    0.000000    0.000002   -0.000000
  |    60   -0.000001   -0.000000   -0.000001    0.000000    0.000000
  |    61   -0.000001   -0.000000   -0.000001    0.000000    0.000000
  |    62    0.000001   -0.000000    0.000000    0.000001   -0.000000
  |    63   -0.000000    0.000000   -0.000000    0.000000    0.000000
  |    64   -0.000000   -0.000000   -0.000000    0.000000    0.000000
  |    65    0.000002   -0.000000    0.000000    0.000002   -0.000000
  |    66   -0.000001   -0.000000   -0.000001    0.000000    0.000000
  |    67   -0.000001   -0.000000   -0.000001    0.000000    0.000000
  |    68    0.000003    0.000000    0.000000    0.000003   -0.000000
  |    69   -0.000001   -0.000000   -0.000001    0.000000    0.000000
  |    70   -0.000001   -0.000000   -0.000001    0.000000    0.000000
  |    71   -0.000001   -0.000000   -0.000000   -0.000001   -0.000000
  |    72   -0.000000    0.000000   -0.000000    0.000000   -0.000000
  |    73   -0.000000    0.000000   -0.000000    0.000000   -0.000000
  |
  | Total    0.000000
 
  Calculating angular momentum projected density of states ...
  | Chemical potential is  -4.788583 eV.
  | writing   projected DOS (shifted by the chemical potential) for species Se to file Se_l_proj_dos_tetrahedron.dat.
  | writing   projected DOS (raw data) for species Se to file Se_l_proj_dos_tetrahedron_raw.dat.
  | writing   projected DOS (shifted by the chemical potential) for species S to file S_l_proj_dos_tetrahedron.dat.
  | writing   projected DOS (raw data) for species S to file S_l_proj_dos_tetrahedron_raw.dat.
  | writing   projected DOS (shifted by the chemical potential) for species Mo to file Mo_l_proj_dos_tetrahedron.dat.
  | writing   projected DOS (raw data) for species Mo to file Mo_l_proj_dos_tetrahedron_raw.dat.
  | writing   projected DOS (shifted by the chemical potential) for species W to file W_l_proj_dos_tetrahedron.dat.
  | writing   projected DOS (raw data) for species W to file W_l_proj_dos_tetrahedron_raw.dat.

  Mulliken analysis                                       :  max(cpu_time)    wall_clock(cpu1)
  | Time for Mulliken analysis (scalar relativistic)      :          1.283               1.348
  | Time for Mulliken analysis (spin-orbit coupled)       :          2.668               2.675
  | Total time for Mulliken analysis                      :          3.951               4.023
------------------------------------------------------------

------------------------------------------------------------------------------
  Final output of selected total energy values:

  The following output summarizes some interesting total energy values
  at the end of a run (AFTER all relaxation, molecular dynamics, etc.).

  | Total energy of the DFT / Hartree-Fock s.c.f. calculation      :      -14511623.345698517 eV
  | Final zero-broadening corrected energy (caution - metals only) :      -14511623.345698517 eV
  | Total energy after non-SC SOC correction (DO NOT USE)          :      -14511666.814027647 eV
  | For reference only, the value of 1 Hartree used in FHI-aims is :             27.211384500 eV
  | For reference only, the overall average (free atom contribution
  | + realspace contribution) of the electrostatic potential after
  | s.c.f. convergence is                                          :             -1.296125841 eV

  Before relying on these values, please be sure to understand exactly which
  total energy value is referred to by a given number. Different objects may
  all carry the same name 'total energy'. Definitions:

  Total energy of the DFT / Hartree-Fock s.c.f. calculation:
  | Note that this energy does not include ANY quantities calculated after the
  | s.c.f. cycle, in particular not ANY RPA, MP2, etc. many-body perturbation terms.

  Final zero-broadening corrected energy:
  | For metallic systems only, a broadening of the occupation numbers at the Fermi
  | level can be extrapolated back to zero broadening by an electron-gas inspired
  | formula. For all systems that are not real metals, this value can be
  | meaningless and should be avoided.

------------------------------------------------------------------------------
  Methods described in the following list of references were used in this FHI-aims run.
  If you publish the results, please make sure to cite these reference if they apply.
  FHI-aims is an academic code, and for our developers (often, Ph.D. students
  and postdocs), scientific credit in the community is essential.
  Thank you for helping us!

  For any use of FHI-aims, please cite:

    Volker Blum, Ralf Gehrke, Felix Hanke, Paula Havu, Ville Havu,
    Xinguo Ren, Karsten Reuter, and Matthias Scheffler
    'Ab initio molecular simulations with numeric atom-centered orbitals'
    Computer Physics Communications 180, 2175-2196 (2009)
    http://doi.org/10.1016/j.cpc.2009.06.022


  For Hartree-Fock, hybrid functionals, or many-body perturbation theory used in your run, please cite:

    Xinguo Ren, Patrick Rinke, Volker Blum, Juergen Wieferink, Alex Tkatchenko,
    Andrea Sanfilippo, Karsten Reuter, and Matthias Scheffler,
    'Resolution-of-identity approach to Hartree-Fock, hybrid density functionals,
    RPA, MP2, and GW with numeric atom-centered orbital basis functions'
    New Journal of Physics 14, 053020 (2012).
    http://doi.org/10.1088/1367-2630/14/5/053020


  The provided symmetry information was generated with SPGlib:

    Atsushi Togo, Yusuke Seto, Dimitar Pashov
    SPGlib 1.7.3 obtained from http://spglib.sourceforge.net
    Copyright (C) 2008 Atsushi Togo


  For second-variational spin-orbit coupling used in your run, please cite:

    William P. Huhn and Volker Blum,
    'One-hundred-three compound band-structure benchmark of post-self-consistent'
    'spin-orbit coupling treatments in density functional theory'
    Phys. Rev. Materials 1, 033803 (2017).


  The ELSI infrastructure was used in your run to solve the Kohn-Sham electronic structure.
  Please check out http://elsi-interchange.org to learn more.
  If scalability is important for your project, please acknowledge ELSI by citing:

    V. W-z. Yu, F. Corsetti, A. Garcia, W. P. Huhn, M. Jacquelin, W. Jia,
    B. Lange, L. Lin, J. Lu, W. Mi, A. Seifitokaldani, A. Vazquez-Mayagoitia,
    C. Yang, H. Yang, and V. Blum
    'ELSI: A unified software interface for Kohn-Sham electronic structure solvers'
    Computer Physics Communications 222, 267-285 (2018).
    http://doi.org/10.1016/j.cpc.2017.09.007


  For the real-space grid partitioning and parallelization used in this calculation, please cite:

    Ville Havu, Volker Blum, Paula Havu, and Matthias Scheffler,
    'Efficient O(N) integration for all-electron electronic structure calculation'
    'using numerically tabulated basis functions'
    Journal of Computational Physics 228, 8367-8379 (2009).
    http://doi.org/10.1016/j.jcp.2009.08.008


  The high-level electronic structure method used in your calculation
  employed our efficient localized resolution of identity for the Coulomb operator.
  Some calculations, especially large-scale hybrid density functional theory,
  are only possible thanks to this development. For this feature, please cite:

    Arvid Ihrig, Juergen Wieferink, Igor Ying Zhang, Matti Ropo, Xinguo Ren,
    Patrick Rinke, Matthias Scheffler, and Volker Blum,
    'Accurate localized resolution of identity approach for linear-scaling
    hybrid density functionals and for many-body perturbation theory'
    New Journal of Physics 117, 093020 (2015).
    http://doi.org/10.1088/1367-2630/17/9/093020

  Of course, there are many other important community references, e.g., those cited in the
  above references. Our list is limited to references that describe implementations in the
  FHI-aims code. The reason is purely practical (length of this list) - please credit others as well.

------------------------------------------------------------
          Leaving FHI-aims.
          Date     :  20220930, Time     :  081402.871

          Computational steps:
          | Number of self-consistency cycles          :           28
          | Number of SCF (re)initializations          :            1

          Detailed time accounting                     :  max(cpu_time)    wall_clock(cpu1)
          | Total time                                  :     4690.175 s        4690.725 s
          | Preparation time                            :        1.585 s           1.590 s
          | Boundary condition initalization            :        0.884 s           0.889 s
          | Grid partitioning                           :        2.971 s           2.971 s
          | Preloading free-atom quantities on grid     :        1.999 s           2.001 s
          | Free-atom superposition energy              :        0.059 s           0.058 s
          | Total time for integrations                 :       47.919 s          47.916 s
          | Product basis setup: Total time             :      579.106 s         579.114 s
          | Total time evaluating exchange matrix       :     3684.266 s        3683.202 s
          | Total time for solution of K.-S. equations  :      194.298 s         194.302 s
          | Total time for density update               :      106.925 s         106.924 s
          | Total time for mixing                       :        0.236 s           0.233 s
          | Total time for Hartree multipole update     :        0.350 s           0.351 s
          | Total time for Hartree multipole sum        :       38.245 s          38.244 s
          | Total time for total energy evaluation      :        0.100 s           0.126 s
          | Total time for scaled ZORA corrections      :        0.000 s           0.000 s
          | Total time for vdW correction               :        5.940 s           5.941 s
          | Total time for perturbative SOC             :       22.050 s          22.051 s
          | Total time for Mulliken analysis            :        3.989 s           4.023 s

          Partial memory accounting:
          | Residual value for overall tracked memory usage across tasks:     0.000000 MB (should be 0.000000 MB)
          | Peak values for overall tracked memory usage:
          |   Minimum:      437.184 MB (on task 120 after allocating perturbation_matrix)
          |   Maximum:      777.022 MB (on task   6 after allocating perturbation_matrix)
          |   Average:      511.643 MB
          | Largest tracked array allocation:
          |   Minimum:       99.789 MB (ovlp3fn for atom on task 120)
          |   Maximum:      227.382 MB (ovlp3fn for atom on task 190)
          |   Average:      167.966 MB
          Note:  These values currently only include a subset of arrays which are explicitly tracked.
          The "true" memory usage will be greater.

          Have a nice day.
------------------------------------------------------------
