------------------------------------------------------------
          Invoking FHI-aims ...

          When using FHI-aims, please cite the following reference:

            Volker Blum, Ralf Gehrke, Felix Hanke, Paula Havu,
            Ville Havu, Xinguo Ren, Karsten Reuter, and Matthias Scheffler,
            'Ab Initio Molecular Simulations with Numeric Atom-Centered Orbitals',
            Computer Physics Communications 180, 2175-2196 (2009)

          In addition, many other developments in FHI-aims are likely important for
          your particular application. A partial list of references is given at the end of
          this file. Thank you for giving credit to the authors of these developments.

          For any questions about FHI-aims, please visit our slack channel at

            https://fhi-aims.slack.com

          and our main development and support site at

            https://aims-git.rz-berlin.mpg.de .

          The latter site, in particular, has a wiki to collect information, as well
          as an issue tracker to log discussions, suggest improvements, and report issues
          or bugs. https://aims-git.rz-berlin.mpg.de is also the main development site
          of the project and all new and updated code versions can be obtained there.
          Please send an email to aims-coordinators@fhi-berlin.mpg.de and we will add
          you to these sites. They are for you and everyone is welcome there.

------------------------------------------------------------



  Date     :  20220207, Time     :  125726.887
  Time zero on CPU 1             :   0.160017000000000E+00  s.
  Internal wall clock time zero  :           413470646.887  s.

  FHI-aims created a unique identifier for this run for later identification
  aims_uuid : 0F6AD189-CECE-44AE-A0FF-059465A22907

  Build configuration of the current instance of FHI-aims
  -------------------------------------------------------
  FHI-aims version      : 211206
  Commit number         : 89e815567
  CMake host system     : Linux-5.3.18-24.86-default
  CMake version         : 3.22.0
  Fortran compiler      : /mpcdf/soft/SLE_15/packages/x86_64/intel_parallel_studio/2020.2/compilers_and_libraries_2020.2.254/linux/mpi/intel64/bin/mpiifort (Intel) version 19.1.2.20200623
  Fortran compiler flags: -O3 -ip -fp-model precise
  C compiler            : /mpcdf/soft/SLE_15/packages/x86_64/intel/19.1.2/bin/icc (Intel) version 19.1.2.20200623
  C compiler flags      : -O3 -ip -fp-model precise
  C++ compiler          : /mpcdf/soft/SLE_15/packages/x86_64/intel/19.1.2/bin/icpc (Intel) version 19.1.2.20200623
  C++ compiler flags    : -O3 -ip -fp-model precise
  Using MPI
  Using ScaLAPACK
  Using LibXC
  Using i-PI
  Using RLSY
  Linking against: /mpcdf/soft/SLE_15/packages/x86_64/intel_oneapi/2021.2/mkl/latest/lib/intel64/libmkl_intel_lp64.so
                   /mpcdf/soft/SLE_15/packages/x86_64/intel_oneapi/2021.2/mkl/latest/lib/intel64/libmkl_sequential.so
                   /mpcdf/soft/SLE_15/packages/x86_64/intel_oneapi/2021.2/mkl/latest/lib/intel64/libmkl_core.so
                   /mpcdf/soft/SLE_15/packages/x86_64/intel_oneapi/2021.2/mkl/latest/lib/intel64/libmkl_blacs_intelmpi_lp64.so
                   /mpcdf/soft/SLE_15/packages/x86_64/intel_oneapi/2021.2/mkl/latest/lib/intel64/libmkl_scalapack_lp64.so

  Using      288 parallel tasks.
  Task        0 on host ravg1045 reporting.
  Task        1 on host ravg1045 reporting.
  Task        2 on host ravg1045 reporting.
  Task        3 on host ravg1045 reporting.
  Task        4 on host ravg1045 reporting.
  Task        5 on host ravg1045 reporting.
  Task        6 on host ravg1045 reporting.
  Task        7 on host ravg1045 reporting.
  Task        8 on host ravg1045 reporting.
  Task        9 on host ravg1045 reporting.
  Task       10 on host ravg1045 reporting.
  Task       11 on host ravg1045 reporting.
  Task       12 on host ravg1045 reporting.
  Task       13 on host ravg1045 reporting.
  Task       14 on host ravg1045 reporting.
  Task       15 on host ravg1045 reporting.
  Task       16 on host ravg1045 reporting.
  Task       17 on host ravg1045 reporting.
  Task       18 on host ravg1045 reporting.
  Task       19 on host ravg1045 reporting.
  Task       20 on host ravg1045 reporting.
  Task       21 on host ravg1045 reporting.
  Task       22 on host ravg1045 reporting.
  Task       23 on host ravg1045 reporting.
  Task       24 on host ravg1045 reporting.
  Task       25 on host ravg1045 reporting.
  Task       26 on host ravg1045 reporting.
  Task       27 on host ravg1045 reporting.
  Task       28 on host ravg1045 reporting.
  Task       29 on host ravg1045 reporting.
  Task       30 on host ravg1045 reporting.
  Task       31 on host ravg1045 reporting.
  Task       32 on host ravg1045 reporting.
  Task       33 on host ravg1045 reporting.
  Task       34 on host ravg1045 reporting.
  Task       35 on host ravg1045 reporting.
  Task       36 on host ravg1045 reporting.
  Task       37 on host ravg1045 reporting.
  Task       38 on host ravg1045 reporting.
  Task       39 on host ravg1045 reporting.
  Task       40 on host ravg1045 reporting.
  Task       41 on host ravg1045 reporting.
  Task       42 on host ravg1045 reporting.
  Task       43 on host ravg1045 reporting.
  Task       44 on host ravg1045 reporting.
  Task       45 on host ravg1045 reporting.
  Task       46 on host ravg1045 reporting.
  Task       47 on host ravg1045 reporting.
  Task       48 on host ravg1045 reporting.
  Task       49 on host ravg1045 reporting.
  Task       50 on host ravg1045 reporting.
  Task       51 on host ravg1045 reporting.
  Task       52 on host ravg1045 reporting.
  Task       53 on host ravg1045 reporting.
  Task       54 on host ravg1045 reporting.
  Task       55 on host ravg1045 reporting.
  Task       56 on host ravg1045 reporting.
  Task       57 on host ravg1045 reporting.
  Task       58 on host ravg1045 reporting.
  Task       59 on host ravg1045 reporting.
  Task       60 on host ravg1045 reporting.
  Task       61 on host ravg1045 reporting.
  Task       62 on host ravg1045 reporting.
  Task       63 on host ravg1045 reporting.
  Task       64 on host ravg1045 reporting.
  Task       65 on host ravg1045 reporting.
  Task       66 on host ravg1045 reporting.
  Task       67 on host ravg1045 reporting.
  Task       68 on host ravg1045 reporting.
  Task       69 on host ravg1045 reporting.
  Task       70 on host ravg1045 reporting.
  Task       71 on host ravg1045 reporting.
  Task       72 on host ravg1046 reporting.
  Task       73 on host ravg1046 reporting.
  Task       74 on host ravg1046 reporting.
  Task       75 on host ravg1046 reporting.
  Task       76 on host ravg1046 reporting.
  Task       77 on host ravg1046 reporting.
  Task       78 on host ravg1046 reporting.
  Task       79 on host ravg1046 reporting.
  Task       80 on host ravg1046 reporting.
  Task       81 on host ravg1046 reporting.
  Task       82 on host ravg1046 reporting.
  Task       83 on host ravg1046 reporting.
  Task       84 on host ravg1046 reporting.
  Task       85 on host ravg1046 reporting.
  Task       86 on host ravg1046 reporting.
  Task       87 on host ravg1046 reporting.
  Task       88 on host ravg1046 reporting.
  Task       89 on host ravg1046 reporting.
  Task       90 on host ravg1046 reporting.
  Task       91 on host ravg1046 reporting.
  Task       92 on host ravg1046 reporting.
  Task       93 on host ravg1046 reporting.
  Task       94 on host ravg1046 reporting.
  Task       95 on host ravg1046 reporting.
  Task       96 on host ravg1046 reporting.
  Task       97 on host ravg1046 reporting.
  Task       98 on host ravg1046 reporting.
  Task       99 on host ravg1046 reporting.
  Task      100 on host ravg1046 reporting.
  Task      101 on host ravg1046 reporting.
  Task      102 on host ravg1046 reporting.
  Task      103 on host ravg1046 reporting.
  Task      104 on host ravg1046 reporting.
  Task      105 on host ravg1046 reporting.
  Task      106 on host ravg1046 reporting.
  Task      107 on host ravg1046 reporting.
  Task      108 on host ravg1046 reporting.
  Task      109 on host ravg1046 reporting.
  Task      110 on host ravg1046 reporting.
  Task      111 on host ravg1046 reporting.
  Task      112 on host ravg1046 reporting.
  Task      113 on host ravg1046 reporting.
  Task      114 on host ravg1046 reporting.
  Task      115 on host ravg1046 reporting.
  Task      116 on host ravg1046 reporting.
  Task      117 on host ravg1046 reporting.
  Task      118 on host ravg1046 reporting.
  Task      119 on host ravg1046 reporting.
  Task      120 on host ravg1046 reporting.
  Task      121 on host ravg1046 reporting.
  Task      122 on host ravg1046 reporting.
  Task      123 on host ravg1046 reporting.
  Task      124 on host ravg1046 reporting.
  Task      125 on host ravg1046 reporting.
  Task      126 on host ravg1046 reporting.
  Task      127 on host ravg1046 reporting.
  Task      128 on host ravg1046 reporting.
  Task      129 on host ravg1046 reporting.
  Task      130 on host ravg1046 reporting.
  Task      131 on host ravg1046 reporting.
  Task      132 on host ravg1046 reporting.
  Task      133 on host ravg1046 reporting.
  Task      134 on host ravg1046 reporting.
  Task      135 on host ravg1046 reporting.
  Task      136 on host ravg1046 reporting.
  Task      137 on host ravg1046 reporting.
  Task      138 on host ravg1046 reporting.
  Task      139 on host ravg1046 reporting.
  Task      140 on host ravg1046 reporting.
  Task      141 on host ravg1046 reporting.
  Task      142 on host ravg1046 reporting.
  Task      143 on host ravg1046 reporting.
  Task      144 on host ravg1048 reporting.
  Task      145 on host ravg1048 reporting.
  Task      146 on host ravg1048 reporting.
  Task      147 on host ravg1048 reporting.
  Task      148 on host ravg1048 reporting.
  Task      149 on host ravg1048 reporting.
  Task      150 on host ravg1048 reporting.
  Task      151 on host ravg1048 reporting.
  Task      152 on host ravg1048 reporting.
  Task      153 on host ravg1048 reporting.
  Task      154 on host ravg1048 reporting.
  Task      155 on host ravg1048 reporting.
  Task      156 on host ravg1048 reporting.
  Task      157 on host ravg1048 reporting.
  Task      158 on host ravg1048 reporting.
  Task      159 on host ravg1048 reporting.
  Task      160 on host ravg1048 reporting.
  Task      161 on host ravg1048 reporting.
  Task      162 on host ravg1048 reporting.
  Task      163 on host ravg1048 reporting.
  Task      164 on host ravg1048 reporting.
  Task      165 on host ravg1048 reporting.
  Task      166 on host ravg1048 reporting.
  Task      167 on host ravg1048 reporting.
  Task      168 on host ravg1048 reporting.
  Task      169 on host ravg1048 reporting.
  Task      170 on host ravg1048 reporting.
  Task      171 on host ravg1048 reporting.
  Task      172 on host ravg1048 reporting.
  Task      173 on host ravg1048 reporting.
  Task      174 on host ravg1048 reporting.
  Task      175 on host ravg1048 reporting.
  Task      176 on host ravg1048 reporting.
  Task      177 on host ravg1048 reporting.
  Task      178 on host ravg1048 reporting.
  Task      179 on host ravg1048 reporting.
  Task      180 on host ravg1048 reporting.
  Task      181 on host ravg1048 reporting.
  Task      182 on host ravg1048 reporting.
  Task      183 on host ravg1048 reporting.
  Task      184 on host ravg1048 reporting.
  Task      185 on host ravg1048 reporting.
  Task      186 on host ravg1048 reporting.
  Task      187 on host ravg1048 reporting.
  Task      188 on host ravg1048 reporting.
  Task      189 on host ravg1048 reporting.
  Task      190 on host ravg1048 reporting.
  Task      191 on host ravg1048 reporting.
  Task      192 on host ravg1048 reporting.
  Task      193 on host ravg1048 reporting.
  Task      194 on host ravg1048 reporting.
  Task      195 on host ravg1048 reporting.
  Task      196 on host ravg1048 reporting.
  Task      197 on host ravg1048 reporting.
  Task      198 on host ravg1048 reporting.
  Task      199 on host ravg1048 reporting.
  Task      200 on host ravg1048 reporting.
  Task      201 on host ravg1048 reporting.
  Task      202 on host ravg1048 reporting.
  Task      203 on host ravg1048 reporting.
  Task      204 on host ravg1048 reporting.
  Task      205 on host ravg1048 reporting.
  Task      206 on host ravg1048 reporting.
  Task      207 on host ravg1048 reporting.
  Task      208 on host ravg1048 reporting.
  Task      209 on host ravg1048 reporting.
  Task      210 on host ravg1048 reporting.
  Task      211 on host ravg1048 reporting.
  Task      212 on host ravg1048 reporting.
  Task      213 on host ravg1048 reporting.
  Task      214 on host ravg1048 reporting.
  Task      215 on host ravg1048 reporting.
  Task      216 on host ravg1177 reporting.
  Task      217 on host ravg1177 reporting.
  Task      218 on host ravg1177 reporting.
  Task      219 on host ravg1177 reporting.
  Task      220 on host ravg1177 reporting.
  Task      221 on host ravg1177 reporting.
  Task      222 on host ravg1177 reporting.
  Task      223 on host ravg1177 reporting.
  Task      224 on host ravg1177 reporting.
  Task      225 on host ravg1177 reporting.
  Task      226 on host ravg1177 reporting.
  Task      227 on host ravg1177 reporting.
  Task      228 on host ravg1177 reporting.
  Task      229 on host ravg1177 reporting.
  Task      230 on host ravg1177 reporting.
  Task      231 on host ravg1177 reporting.
  Task      232 on host ravg1177 reporting.
  Task      233 on host ravg1177 reporting.
  Task      234 on host ravg1177 reporting.
  Task      235 on host ravg1177 reporting.
  Task      236 on host ravg1177 reporting.
  Task      237 on host ravg1177 reporting.
  Task      238 on host ravg1177 reporting.
  Task      239 on host ravg1177 reporting.
  Task      240 on host ravg1177 reporting.
  Task      241 on host ravg1177 reporting.
  Task      242 on host ravg1177 reporting.
  Task      243 on host ravg1177 reporting.
  Task      244 on host ravg1177 reporting.
  Task      245 on host ravg1177 reporting.
  Task      246 on host ravg1177 reporting.
  Task      247 on host ravg1177 reporting.
  Task      248 on host ravg1177 reporting.
  Task      249 on host ravg1177 reporting.
  Task      250 on host ravg1177 reporting.
  Task      251 on host ravg1177 reporting.
  Task      252 on host ravg1177 reporting.
  Task      253 on host ravg1177 reporting.
  Task      254 on host ravg1177 reporting.
  Task      255 on host ravg1177 reporting.
  Task      256 on host ravg1177 reporting.
  Task      257 on host ravg1177 reporting.
  Task      258 on host ravg1177 reporting.
  Task      259 on host ravg1177 reporting.
  Task      260 on host ravg1177 reporting.
  Task      261 on host ravg1177 reporting.
  Task      262 on host ravg1177 reporting.
  Task      263 on host ravg1177 reporting.
  Task      264 on host ravg1177 reporting.
  Task      265 on host ravg1177 reporting.
  Task      266 on host ravg1177 reporting.
  Task      267 on host ravg1177 reporting.
  Task      268 on host ravg1177 reporting.
  Task      269 on host ravg1177 reporting.
  Task      270 on host ravg1177 reporting.
  Task      271 on host ravg1177 reporting.
  Task      272 on host ravg1177 reporting.
  Task      273 on host ravg1177 reporting.
  Task      274 on host ravg1177 reporting.
  Task      275 on host ravg1177 reporting.
  Task      276 on host ravg1177 reporting.
  Task      277 on host ravg1177 reporting.
  Task      278 on host ravg1177 reporting.
  Task      279 on host ravg1177 reporting.
  Task      280 on host ravg1177 reporting.
  Task      281 on host ravg1177 reporting.
  Task      282 on host ravg1177 reporting.
  Task      283 on host ravg1177 reporting.
  Task      284 on host ravg1177 reporting.
  Task      285 on host ravg1177 reporting.
  Task      286 on host ravg1177 reporting.
  Task      287 on host ravg1177 reporting.

  Performing system and environment tests:
  | Environment variable OMP_NUM_THREADS correctly set to 1.
  | Checking for ScaLAPACK...
  | Testing pdtran()...
  | All pdtran() tests passed.

  Obtaining array dimensions for all initial allocations:
  
  -----------------------------------------------------------------------
  Parsing control.in (first pass over file, find array dimensions only).
  The contents of control.in will be repeated verbatim below
  unless switched off by setting 'verbatim_writeout .false.' .
  in the first line of control.in .
  -----------------------------------------------------------------------
  
  xc                 hse06  0.11
  hse_unit b
  spin             none
  charge      0.0
  relativistic       atomic_zora scalar
  #elsi_restart read
  # SCF settings
  relax_geometry bfgs 1E-3
  #relax_unit_cell fixed_angles
  use_symmetric_forces .true.
  occupation_type gaussian       0.1
  # k-grid settings  (to be adjusted)
  k_grid  4 4 1
  #empty_states 8
  use_dipole_correction
  #include_spin_orbit non_self_consistent
  # sc_accuracy_rho    1E-4
  #    sc_accuracy_eev    1E-3
  #    sc_accuracy_etot   1E-4
  #    sc_accuracy_forces 1E-2
  many_body_dispersion_nl    beta=0.83
  ################################################################################
  #
  #  FHI-aims code project
  #  Volker Blum, 2018
  #
  #  Suggested "intermediate" defaults for Se atom (to be pasted into control.in file)
  #
  #  2020/09/15 These "intermediate" settings are identical to past "tight" defaults
  #             and differ only in the "g" function that is now included in "tight".
  #
  ################################################################################
    species        Se
  #     global species definitions
      nucleus             34
      mass                78.96
  #
      l_hartree           6
  #
      cut_pot             4.0          2.0  1.0
      basis_dep_cutoff    1e-4
  #
      radial_base         55 7.0
      radial_multiplier   2
      angular_grids       specified
        division   0.0830  110
        division   0.1357  194
        division   0.7377  302
        division   0.8610  434
  #      division   0.9640  590
  #      division   1.0773  770
  #      division   2.5539  974
  #      outer_grid  974
        outer_grid  434
  ################################################################################
  #
  #  Definition of "minimal" basis
  #
  ################################################################################
  #     valence basis states
      valence      4  s   2.
      valence      4  p   4.
      valence      3  d  10.
  #     ion occupancy
      ion_occ      4  s   1.
      ion_occ      4  p   3.
      ion_occ      3  d  10.
  ################################################################################
  #
  #  Suggested additional basis functions. For production calculations,
  #  uncomment them one after another (the most important basis functions are
  #  listed first).
  #
  #  Constructed for dimers: 1.85 A, 2.15 A, 2.50 A, 3.00 A, 4.00 A
  #
  ################################################################################
  #  "First tier" - improvements: -336.21 meV to -36.85 meV
       hydro 3 d 4.3
       hydro 2 p 1.6
       hydro 4 f 7.2
       ionic 4 s auto
  #  "Second tier" - improvements: -14.39 meV to -1.49 meV
  #     hydro 5 g 10.4
  #     hydro 4 p 4.5
  #     hydro 4 d 6.2
  #     hydro 4 f 11.2
  #     hydro 1 s 0.65
  #     hydro 6 h 15.2
  #  "Third tier" - improvements: -0.46 meV and below
  #     hydro 5 g 14.4
  #     ionic 4 d auto
  #     hydro 4 f 22.4
  #     hydro 5 f 7.4
  #     hydro 5 p 8
  #     hydro 5 s 9.4
  #  "Fourth tier" - improvements: -0.12 meV and below
  #     hydro 5 d 11.6
  #     hydro 6 h 18
  #     hydro 4 p 4
  #     hydro 5 f 16
  #     hydro 4 s 3.9
  
  
  ################################################################################
  #
  #  FHI-aims code project
  #  Volker Blum, 2018
  #
  #  Suggested "intermediate" defaults for S atom (to be pasted into control.in file)
  #
  ################################################################################
    species        S
  #     global species definitions
      nucleus             16
      mass                32.065
  #
      l_hartree           6
  #
      cut_pot             4.0          2.0  1.0
      basis_dep_cutoff    1e-4
  #
      radial_base         44 7.0
      radial_multiplier   2
      angular_grids       specified
        division   0.4665  110
        division   0.5810  194
        division   0.7139  302
        division   0.8274  434
  #      division   0.9105  590
  #      division   1.0975  770
  #      division   1.2028  974
  #      outer_grid  974
        outer_grid  434
  ################################################################################
  #
  #  Definition of "minimal" basis
  #
  ################################################################################
  #     valence basis states
      valence      3  s   2.
      valence      3  p   4.
  #     ion occupancy
      ion_occ      3  s   1.
      ion_occ      3  p   3.
  ################################################################################
  #
  #  Suggested additional basis functions. For production calculations,
  #  uncomment them one after another (the most important basis functions are
  #  listed first).
  #
  #  Constructed for dimers: 1.6 A, 1.9 A, 2.5 A, 3.25 A, 4.0 A
  #
  ################################################################################
  #  "First tier" - improvements: -652.81 meV to -45.53 meV
       ionic 3 d auto
       hydro 2 p 1.8
       hydro 4 f 7
       ionic 3 s auto
  #  "Second tier" - improvements: -30.20 meV to -1.74 meV
  #     hydro 4 d 6.2
  for_aux     hydro 5 g 10.8
  #     hydro 4 p 4.9
  #     hydro 5 f 10
  #     hydro 1 s 0.8
  #  "Third tier" - improvements: -1.04 meV to -0.20 meV
  #     hydro 3 d 3.9
  #     hydro 3 d 2.7
  #     hydro 5 g 12
  #     hydro 4 p 10.4
  #     hydro 5 f 12.4
  #     hydro 2 s 1.9
  #  "Fourth tier" - improvements: -0.35 meV to -0.06 meV
  #     hydro 4 d 10.4
  #     hydro 4 p 7.2
  #     hydro 4 d 10
  #     hydro 5 g 19.2
  #     hydro 4 s 12
  
  ################################################################################
  #
  #  FHI-aims code project
  # Volker Blum, Fritz Haber Institute Berlin, 2009
  #
  #  Suggested "intermediate" defaults for Mo atom (to be pasted into control.in file)
  #
  #  See https://aaltodoc.aalto.fi/handle/123456789/33620 for the report these
  #  setting are based on
  ################################################################################
    species        Mo
  #     global species definitions
      nucleus             42
      mass                95.94
  #
      l_hartree           6
  #
      cut_pot             4.0  2.0  1.0
      basis_dep_cutoff    1e-4
  #
      radial_base         59 7.0
      radial_multiplier   2
      angular_grids specified
        division   0.3117   50
        division   0.6750  110
        division   1.0351  194
        division   1.2073  302
        division   1.6402  434
  #      division   1.9185  590
  #      division   2.0237  770
  #      division   2.0980  974
  #      division   2.7972 1202
  #      outer_grid  974
        outer_grid  434
  ################################################################################
  #
  #  Definition of "minimal" basis
  #
  ################################################################################
  #     valence basis states
      valence      5  s   1.
      valence      4  p   6.
      valence      4  d   5.
  #     ion occupancy
      ion_occ     5  s   0.
      ion_occ     4  p   6.
      ion_occ     4  d   4.
  ################################################################################
  #
  #  Suggested additional basis functions. For production calculations,
  #  uncomment them one after another (the most important basis functions are
  #  listed first).
  #
  #  Constructed for dimers: 1.675 A, 1.9 A, 2.375 A, 3.00 A, 4.00 A
  #
  ################################################################################
  #  "First tier"  - max. impr. -711.23  meV, min. impr. -21.07 meV
       hydro 4 f 8.4
       hydro 3 d 2.8
       ionic 5 p auto
       for_aux hydro 5 g 12
       ionic 5 s auto
  #  "Second tier" - max. impr. -39.38  meV, min. impr. -2.68 meV
  #     hydro 4 f 12.4
  #     hydro 3 d 3.3
  #     hydro 6 h 17.2
  #     hydro 4 f 7.6
  #     hydro 3 p 3.0
  #     hydro 1 s 0.65
  #  "Third tier"  - max. impr. -5.50 meV, min. impr. -0.47 meV
  #     hydro 4 f 29.2
  #     hydro 5 g 11.2
  #     hydro 3 d 6.8
  #     hydro 6 h 14.8
  #     hydro 2 p 2.3
  #     hydro 4 s 3.8
  #  "Fourth tier"  - max. impr. -0.58 meV, min. impr. -0.19 meV
  #     hydro 5 f 6.8
  #     hydro 5 d 14.8
  #     hydro 6 s 7.8
  #     hydro 5 g 20.8
  #     hydro 5 d 10.4
  #     hydro 5 p 9.8
  #  Further functions - -0.17 meV and below
  #     hydro 5 d 3.2
  ################################################################################
  #
  #  FHI-aims code project
  #  Volker Blum, Maria Dragoumi, Sebastian Kokott 2020
  #
  #  Suggested "intermediate" defaults for W atom (to be pasted into control.in file)
  #
  ################################################################################
    species          W
  #     global species definitions
      nucleus        74
      mass           183.84
  #
      l_hartree      6
  #
      cut_pot        4.0  2.0  1.0
      basis_dep_cutoff    1e-4
  #
      radial_base    71  7.0
      radial_multiplier  2
      angular_grids specified
        division   0.2901   50
        division   0.6986  110
        division   1.0528  194
        division   1.2659  302
        division   1.5223  434
  #      division   1.8111  590
  #      division   2.0105  770
  #      division   2.0413  974
  #      division   2.8804 1202
  #      outer_grid  974
        outer_grid  434
  ################################################################################
  #
  #  Definition of "minimal" basis
  #
  ################################################################################
  #     valence basis states
      valence      6  s   2.
      valence      5  p   6.
      valence      5  d   4.
      valence      4  f  14.
  #     ion occupancy
      ion_occ      6  s   1.
      ion_occ      5  p   6.
      ion_occ      5  d   3.
      ion_occ      4  f  14.
  ################################################################################
  #
  #  Suggested additional basis functions. For production calculations,
  #  uncomment them one after another (the most important basis functions are
  #  listed first).
  #
  #  Constructed for dimers: 1.775, 1.99, 2.50, 3.25, 4.50 AA
  #
  ################################################################################
  #
  #  "First tier" - improvements: -603.77 meV to -28.99 meV
       hydro 4 f 7.8
       hydro 4 d 5.8
       ionic 6 p auto
    for_aux   hydro 5 g 12.4
       ionic 6 s auto
  #  "Second tier" - improvements: -28.30 meV to -1.31 meV
  #     hydro 6 h 16.8
  #     ionic 5 d auto
  #     hydro 4 f 8.6
  #     hydro 5 g 16.8
  #     hydro 5 d 8.4
  #     hydro 3 p 3.3
  #     hydro 1 s 0.55
  #  "Third tier" - max. impr. -1.79 meV, min. impr. -0.26 meV
  #     hydro 5 f 10.8
  #     hydro 5 g 34.4
  #     hydro 6 h 20.8
  #     hydro 5 g 12.8
  #     hydro 2 p 1.6
  #     hydro 4 s 4.7
  #     hydro 6 d 18.4
  #  "Fourth tier" -0.46 max. impr. - meV, min. impr. -0.09 meV
  #     hydro 6 h 21.6
  #     hydro 5 f 22.4
  #     hydro 4 f 4
  #     hydro 5 p 9.6
  #     hydro 6 d 17.2
  #     hydro 3 p 5.2
  #     hydro 5 g 4.7
  #     hydro 6 s 7.6
  
  -----------------------------------------------------------------------
  Completed first pass over input file control.in .
  -----------------------------------------------------------------------
  
  
  -----------------------------------------------------------------------
  Parsing geometry.in (first pass over file, find array dimensions only).
  The contents of geometry.in will be repeated verbatim below
  unless switched off by setting 'verbatim_writeout .false.' .
  in the first line of geometry.in .
  -----------------------------------------------------------------------
  
  #
  # This is the geometry file that corresponds to the current relaxation step.
  # If you do not want this file to be written, set the "write_restart_geometry" flag to .false.
  #  aims_uuid : 51E68E1B-6ADE-4A14-A4D6-EADB5D70510B
  #
    set_vacuum_level         0.700814
  lattice_vector     15.72847685      0.00000000      0.00000000
  lattice_vector     -7.86461685     13.62035640      0.00000000
  lattice_vector      0.00000000      0.00000000    103.13570646
  atom      -0.00047148      0.90767566     51.56723162 W
  atom       1.57216116      1.81585225     53.13517121 S
  atom       1.57271304      1.81170468     49.99871477 S
  atom      -1.57292910      3.63137337     51.56570682 W
  atom       0.00129958      4.54025684     53.13137519 S
  atom      -0.00004871      4.53947571     49.99806209 S
  atom      -3.14585335      6.35503323     51.56719139 W
  atom      -1.57291094      7.26262192     53.13516738 S
  atom      -1.57619748      7.26519180     49.99869425 S
  atom      -4.71762284      9.07932162     51.56864704 W
  atom      -3.14594833      9.98720935     53.13800847 S
  atom      -3.14595958      9.98878614     50.00133880 S
  atom      -6.29131337     11.80474031     51.56866746 W
  atom      -4.71919126     12.71182540     53.13803658 S
  atom      -4.71784563     12.71102389     50.00132335 S
  atom       3.14494152      0.90644533     51.56864146 W
  atom       4.71849138      1.81970803     53.13354303 S
  atom       4.71848833      1.81250362     50.00073313 S
  atom       1.57556007      3.62870339     51.56374963 W
  atom       3.14441268      4.54248149     53.13122230 S
  atom       3.14345384      4.52556890     49.98492940 S
  atom      -0.00106035      6.35932784     51.56374090 W
  atom       1.57470064      7.26090212     53.13131438 S
  atom       1.55957759      7.26857976     49.98485935 S
  atom      -1.57426399      9.07933042     51.56863397 W
  atom       0.00352041      9.98534742     53.13351884 S
  atom      -0.00267229      9.98894758     50.00081509 S
  atom      -3.14601559     11.80367212     51.57038159 W
  atom      -1.57284933     12.71183717     53.13800003 S
  atom      -1.57420244     12.71103664     50.00134453 S
  atom       6.29209137      0.90651328     51.56863014 W
  atom       7.86489084      1.81584657     53.13514684 S
  atom       7.86434532      1.81168873     49.99871296 S
  atom       4.71849742      3.63463719     51.56231209 W
  atom       6.29246024      4.54250104     53.13125366 S
  atom       6.29341102      4.52558804     49.98486901 S
  atom       3.11941326      6.34050310     51.54951127 W
  atom       4.71837261      7.26336614     53.07036519 S
  atom       4.71837948      7.26305826     55.00779528 S
  atom       4.71836739      7.26346355     50.01066340 S
  atom       1.57548191      9.07789190     51.56235167 W
  atom       3.14868654      9.98701065     53.13134369 S
  atom       3.13452407      9.99632094     49.98493070 S
  atom      -0.00069488     11.80471394     51.56865279 W
  atom       1.57329698     12.71197962     53.13517983 S
  atom       1.56947007     12.71353431     49.99877566 S
  atom       9.43757325      0.90764740     51.56723776 W
  atom      11.01063159      1.81576299     53.13429315 S
  atom      11.00974075      1.81522003     49.99826199 S
  atom       7.86126476      3.62870237     51.56372996 W
  atom       9.43555890      4.54024300     53.13133974 S
  atom       9.43690988      4.53947804     49.99808712 S
  atom       6.31733625      6.34046996     51.54949524 W
  atom       7.86198059      7.26090115     53.13133584 S
  atom       7.87711692      7.26858915     49.98485582 S
  atom       4.71826773      9.10960514     51.54956913 W
  atom       6.28787470      9.98698868     53.13133416 S
  atom       6.30204628      9.99629603     49.98495825 S
  atom       3.14164039     11.80249071     51.56381374 W
  atom       4.71821223     12.71002182     53.13143419 S
  atom       4.71821289     12.71153556     49.99812174 S
  atom      12.58273766      0.90737351     51.56572194 W
  atom      14.15485904      1.81574610     53.13427106 S
  atom      14.15574596      1.81521051     49.99828215 S
  atom      11.00984449      3.63136892     51.56569335 W
  atom      12.58266961      4.53861080     53.13420303 S
  atom      12.58267443      4.53962680     49.99831438 S
  atom       9.43776774      6.35936073     51.56374733 W
  atom      11.00963760      7.26261190     53.13517117 S
  atom      11.01291752      7.26518887     49.99871339 S
  atom       7.86115731      9.07788393     51.56237289 W
  atom       9.43305511      9.98536784     53.13353734 S
  atom       9.43924911      9.98896296     50.00082772 S
  atom       6.29480220     11.80246920     51.56381644 W
  atom       7.86311414     12.71198589     53.13517006 S
  atom       7.86694655     12.71353276     49.99879120 S
  #
  # What follows is the current estimated Hessian matrix constructed by the BFGS algorithm.
  # This is NOT the true Hessian matrix of the system.
  # If you do not want this information here, switch it off using the "hessian_to_restart_geometry" keyword.
  #
  trust_radius             0.0007254716
  hessian_file
  
  -----------------------------------------------------------------------
  Completed first pass over input file geometry.in .
  -----------------------------------------------------------------------
  

  Basic array size parameters:
  | Number of species                 :        4
  | Number of atoms                   :       76
  | Number of lattice vectors         :        3
  | Max. basis fn. angular momentum   :        4
  | Max. atomic/ionic basis occupied n:        6
  | Max. number of basis fn. types    :        3
  | Max. radial fns per species/type  :       14
  | Max. logarithmic grid size        :     1483
  | Max. radial integration grid size :      143
  | Max. angular integration grid size:      434
  | Max. angular grid division number :        8
  | Radial grid for Hartree potential :     1483
  | Number of spin channels           :        1

------------------------------------------------------------
          Reading file control.in.
------------------------------------------------------------

  XC: Using HSE-functional with OMEGA =  0.110000E+00 <units>.
  XC: For the actual units (bohr^-1 or Angstrom^-1), see below.
  hse_unit: Unit for the HSE06 hybrid functional screening parameter set to bohr^(-1).
  Spin treatment: No spin polarisation.
  Charge =   0.000000E+00: Neutral system requested explicitly.
  Scalar relativistic treatment of kinetic energy: on-site free-atom approximation to ZORA.
  Geometry relaxation: Modified BFGS - TRM (trust radius method) for lattice optimization.
  Convergence accuracy for geometry relaxation: Maximum force <   0.100000E-02 eV/A.
  Occupation type: Gaussian broadening, width =   0.100000E+00 eV.
  Found k-point grid:         4         4         1
  Using dipole correction.
  Using libMBD for calculating MBD and TS energies
 
  Reading configuration options for species Se                  .
  | Found nuclear charge :  34.0000
  | Found atomic mass :    78.9600000000000      amu
  | Found l_max for Hartree potential  :   6
  | Found cutoff potl. onset [A], width [A], scale factor :    4.00000    2.00000    1.00000
  | Threshold for basis-dependent cutoff potential is   0.100000E-03
  | Found data for basic radial integration grid :    55 points, outermost radius =    7.000 A
  | Found multiplier for basic radial grid :   2
  | Found angular grid specification: user-specified.
  | Specified grid contains     5 separate shells.
  | Check grid settings after all constraints further below.
  | Found free-atom valence shell :  4 s   2.000
  | Found free-atom valence shell :  4 p   4.000
  | Found free-atom valence shell :  3 d  10.000
  | Found free-ion valence shell :  4 s   1.000
  | Found free-ion valence shell :  4 p   3.000
  | Found free-ion valence shell :  3 d  10.000
  | Found hydrogenic basis function :  3 d   4.300
  | Found hydrogenic basis function :  2 p   1.600
  | Found hydrogenic basis function :  4 f   7.200
  | Found ionic basis function :  4 s , default cutoff radius.
  Species Se                  : Missing cutoff potential type.
  Defaulting to exp(1/x)/(1-x)^2 type cutoff potential.
  Species Se: No 'logarithmic' tag. Using default grid for free atom:
  | Default logarithmic grid data [bohr] : 0.1000E-03 0.1000E+03 0.1012E+01
  | Will include ionic basis functions of  2.0-fold positive Se                   ion.
  Species Se: On-site basis accuracy parameter (for Gram-Schmidt orthonormalisation) not specified.
  Using default value basis_acc =  0.1000000E-03.
  Species Se                  : Using default innermost maximum threshold i_radial=  2 for radial functions.
  Species Se                  : Default cutoff onset for free atom density etc. : 0.40000000E+01 AA.
  Species Se                  : Basic radial grid will be enhanced according to radial_multiplier =   2, to contain   111 grid points.
 
  Reading configuration options for species S                   .
  | Found nuclear charge :  16.0000
  | Found atomic mass :    32.0650000000000      amu
  | Found l_max for Hartree potential  :   6
  | Found cutoff potl. onset [A], width [A], scale factor :    4.00000    2.00000    1.00000
  | Threshold for basis-dependent cutoff potential is   0.100000E-03
  | Found data for basic radial integration grid :    44 points, outermost radius =    7.000 A
  | Found multiplier for basic radial grid :   2
  | Found angular grid specification: user-specified.
  | Specified grid contains     5 separate shells.
  | Check grid settings after all constraints further below.
  | Found free-atom valence shell :  3 s   2.000
  | Found free-atom valence shell :  3 p   4.000
  | Found free-ion valence shell :  3 s   1.000
  | Found free-ion valence shell :  3 p   3.000
  | Found ionic basis function :  3 d , default cutoff radius.
  | Found hydrogenic basis function :  2 p   1.800
  | Found hydrogenic basis function :  4 f   7.000
  | Found ionic basis function :  3 s , default cutoff radius.
  | Found hydrogenic extended basis function :  5 g  10.800
  Species S                   : Missing cutoff potential type.
  Defaulting to exp(1/x)/(1-x)^2 type cutoff potential.
  Species S : No 'logarithmic' tag. Using default grid for free atom:
  | Default logarithmic grid data [bohr] : 0.1000E-03 0.1000E+03 0.1012E+01
  | Will include ionic basis functions of  2.0-fold positive S                    ion.
  Species S : On-site basis accuracy parameter (for Gram-Schmidt orthonormalisation) not specified.
  Using default value basis_acc =  0.1000000E-03.
  Species S                   : Using default innermost maximum threshold i_radial=  2 for radial functions.
  Species S                   : Default cutoff onset for free atom density etc. : 0.40000000E+01 AA.
  Species S                   : Basic radial grid will be enhanced according to radial_multiplier =   2, to contain    89 grid points.
 
  Reading configuration options for species Mo                  .
  | Found nuclear charge :  42.0000
  | Found atomic mass :    95.9400000000000      amu
  | Found l_max for Hartree potential  :   6
  | Found cutoff potl. onset [A], width [A], scale factor :    4.00000    2.00000    1.00000
  | Threshold for basis-dependent cutoff potential is   0.100000E-03
  | Found data for basic radial integration grid :    59 points, outermost radius =    7.000 A
  | Found multiplier for basic radial grid :   2
  | Found angular grid specification: user-specified.
  | Specified grid contains     6 separate shells.
  | Check grid settings after all constraints further below.
  | Found free-atom valence shell :  5 s   1.000
  | Found free-atom valence shell :  4 p   6.000
  | Found free-atom valence shell :  4 d   5.000
  | Found free-ion valence shell :  5 s   0.000
  | Found free-ion valence shell :  4 p   6.000
  | Found free-ion valence shell :  4 d   4.000
  | Found hydrogenic basis function :  4 f   8.400
  | Found hydrogenic basis function :  3 d   2.800
  | Found ionic basis function :  5 p , default cutoff radius.
  | Found hydrogenic extended basis function :  5 g  12.000
  | Found ionic basis function :  5 s , default cutoff radius.
  Species Mo                  : Missing cutoff potential type.
  Defaulting to exp(1/x)/(1-x)^2 type cutoff potential.
  Species Mo: No 'logarithmic' tag. Using default grid for free atom:
  | Default logarithmic grid data [bohr] : 0.1000E-03 0.1000E+03 0.1012E+01
  | Will include ionic basis functions of  2.0-fold positive Mo                   ion.
  Species Mo: On-site basis accuracy parameter (for Gram-Schmidt orthonormalisation) not specified.
  Using default value basis_acc =  0.1000000E-03.
  Species Mo                  : Using default innermost maximum threshold i_radial=  2 for radial functions.
  Species Mo                  : Default cutoff onset for free atom density etc. : 0.40000000E+01 AA.
  Species Mo                  : Basic radial grid will be enhanced according to radial_multiplier =   2, to contain   119 grid points.
 
  Reading configuration options for species W                   .
  | Found nuclear charge :  74.0000
  | Found atomic mass :    183.840000000000      amu
  | Found l_max for Hartree potential  :   6
  | Found cutoff potl. onset [A], width [A], scale factor :    4.00000    2.00000    1.00000
  | Threshold for basis-dependent cutoff potential is   0.100000E-03
  | Found data for basic radial integration grid :    71 points, outermost radius =    7.000 A
  | Found multiplier for basic radial grid :   2
  | Found angular grid specification: user-specified.
  | Specified grid contains     6 separate shells.
  | Check grid settings after all constraints further below.
  | Found free-atom valence shell :  6 s   2.000
  | Found free-atom valence shell :  5 p   6.000
  | Found free-atom valence shell :  5 d   4.000
  | Found free-atom valence shell :  4 f  14.000
  | Found free-ion valence shell :  6 s   1.000
  | Found free-ion valence shell :  5 p   6.000
  | Found free-ion valence shell :  5 d   3.000
  | Found free-ion valence shell :  4 f  14.000
  | Found hydrogenic basis function :  4 f   7.800
  | Found hydrogenic basis function :  4 d   5.800
  | Found ionic basis function :  6 p , default cutoff radius.
  | Found hydrogenic extended basis function :  5 g  12.400
  | Found ionic basis function :  6 s , default cutoff radius.
  Species W                   : Missing cutoff potential type.
  Defaulting to exp(1/x)/(1-x)^2 type cutoff potential.
  Species W : No 'logarithmic' tag. Using default grid for free atom:
  | Default logarithmic grid data [bohr] : 0.1000E-03 0.1000E+03 0.1012E+01
  | Will include ionic basis functions of  2.0-fold positive W                    ion.
  Species W : On-site basis accuracy parameter (for Gram-Schmidt orthonormalisation) not specified.
  Using default value basis_acc =  0.1000000E-03.
  Species W                   : Using default innermost maximum threshold i_radial=  2 for radial functions.
  Species W                   : Default cutoff onset for free atom density etc. : 0.40000000E+01 AA.
  Species W                   : Basic radial grid will be enhanced according to radial_multiplier =   2, to contain   143 grid points.
 
  Finished reading input file 'control.in'.
 
------------------------------------------------------------


------------------------------------------------------------
          Reading geometry description geometry.in.
------------------------------------------------------------
  Vacuum level in z-axis :   0.700814E+00
  Found keyword 'hessian_file', indicating that this is the continuation of a structure optimization.
  Verifying the existence of the file 'hessian.aims' on all processors
  | The smallest distance between any two atoms is         1.93743011 AA.
  | The first atom of this pair is atom number                     38 .
  | The second atom of this pair is atom number                    39 .
  | Wigner-Seitz cell of the first atom image           0     0     0 .
  | (The Wigner-Seitz cell of the second atom is 0 0 0  by definition.)

  Symmetry information by spglib:
  | Precision set to  0.1E-04
  | Number of Operations  : 1
  | Space group           : 1
  | International         : P1
  | Schoenflies           : C1^1
  Input structure read successfully.
  The structure contains       76 atoms,  and a total of       2666.000 electrons.

  Input geometry:
  | Unit cell:
  |       15.72847685        0.00000000        0.00000000
  |       -7.86461685       13.62035640        0.00000000
  |        0.00000000        0.00000000      103.13570646
  | Atomic structure:
  |       Atom                x [A]            y [A]            z [A]
  |    1: Species W            -0.00047148        0.90767566       51.56723162
  |    2: Species S             1.57216116        1.81585225       53.13517121
  |    3: Species S             1.57271304        1.81170468       49.99871477
  |    4: Species W            -1.57292910        3.63137337       51.56570682
  |    5: Species S             0.00129958        4.54025684       53.13137519
  |    6: Species S            -0.00004871        4.53947571       49.99806209
  |    7: Species W            -3.14585335        6.35503323       51.56719139
  |    8: Species S            -1.57291094        7.26262192       53.13516738
  |    9: Species S            -1.57619748        7.26519180       49.99869425
  |   10: Species W            -4.71762284        9.07932162       51.56864704
  |   11: Species S            -3.14594833        9.98720935       53.13800847
  |   12: Species S            -3.14595958        9.98878614       50.00133880
  |   13: Species W            -6.29131337       11.80474031       51.56866746
  |   14: Species S            -4.71919126       12.71182540       53.13803658
  |   15: Species S            -4.71784563       12.71102389       50.00132335
  |   16: Species W             3.14494152        0.90644533       51.56864146
  |   17: Species S             4.71849138        1.81970803       53.13354303
  |   18: Species S             4.71848833        1.81250362       50.00073313
  |   19: Species W             1.57556007        3.62870339       51.56374963
  |   20: Species S             3.14441268        4.54248149       53.13122230
  |   21: Species S             3.14345384        4.52556890       49.98492940
  |   22: Species W            -0.00106035        6.35932784       51.56374090
  |   23: Species S             1.57470064        7.26090212       53.13131438
  |   24: Species S             1.55957759        7.26857976       49.98485935
  |   25: Species W            -1.57426399        9.07933042       51.56863397
  |   26: Species S             0.00352041        9.98534742       53.13351884
  |   27: Species S            -0.00267229        9.98894758       50.00081509
  |   28: Species W            -3.14601559       11.80367212       51.57038159
  |   29: Species S            -1.57284933       12.71183717       53.13800003
  |   30: Species S            -1.57420244       12.71103664       50.00134453
  |   31: Species W             6.29209137        0.90651328       51.56863014
  |   32: Species S             7.86489084        1.81584657       53.13514684
  |   33: Species S             7.86434532        1.81168873       49.99871296
  |   34: Species W             4.71849742        3.63463719       51.56231209
  |   35: Species S             6.29246024        4.54250104       53.13125366
  |   36: Species S             6.29341102        4.52558804       49.98486901
  |   37: Species W             3.11941326        6.34050310       51.54951127
  |   38: Species S             4.71837261        7.26336614       53.07036519
  |   39: Species S             4.71837948        7.26305826       55.00779528
  |   40: Species S             4.71836739        7.26346355       50.01066340
  |   41: Species W             1.57548191        9.07789190       51.56235167
  |   42: Species S             3.14868654        9.98701065       53.13134369
  |   43: Species S             3.13452407        9.99632094       49.98493070
  |   44: Species W            -0.00069488       11.80471394       51.56865279
  |   45: Species S             1.57329698       12.71197962       53.13517983
  |   46: Species S             1.56947007       12.71353431       49.99877566
  |   47: Species W             9.43757325        0.90764740       51.56723776
  |   48: Species S            11.01063159        1.81576299       53.13429315
  |   49: Species S            11.00974075        1.81522003       49.99826199
  |   50: Species W             7.86126476        3.62870237       51.56372996
  |   51: Species S             9.43555890        4.54024300       53.13133974
  |   52: Species S             9.43690988        4.53947804       49.99808712
  |   53: Species W             6.31733625        6.34046996       51.54949524
  |   54: Species S             7.86198059        7.26090115       53.13133584
  |   55: Species S             7.87711692        7.26858915       49.98485582
  |   56: Species W             4.71826773        9.10960514       51.54956913
  |   57: Species S             6.28787470        9.98698868       53.13133416
  |   58: Species S             6.30204628        9.99629603       49.98495825
  |   59: Species W             3.14164039       11.80249071       51.56381374
  |   60: Species S             4.71821223       12.71002182       53.13143419
  |   61: Species S             4.71821289       12.71153556       49.99812174
  |   62: Species W            12.58273766        0.90737351       51.56572194
  |   63: Species S            14.15485904        1.81574610       53.13427106
  |   64: Species S            14.15574596        1.81521051       49.99828215
  |   65: Species W            11.00984449        3.63136892       51.56569335
  |   66: Species S            12.58266961        4.53861080       53.13420303
  |   67: Species S            12.58267443        4.53962680       49.99831438
  |   68: Species W             9.43776774        6.35936073       51.56374733
  |   69: Species S            11.00963760        7.26261190       53.13517117
  |   70: Species S            11.01291752        7.26518887       49.99871339
  |   71: Species W             7.86115731        9.07788393       51.56237289
  |   72: Species S             9.43305511        9.98536784       53.13353734
  |   73: Species S             9.43924911        9.98896296       50.00082772
  |   74: Species W             6.29480220       11.80246920       51.56381644
  |   75: Species S             7.86311414       12.71198589       53.13517006
  |   76: Species S             7.86694655       12.71353276       49.99879120

  Lattice parameters for 3D lattice (in Angstroms) :    15.728477   15.727883  103.135706
  Angle(s) between unit vectors (in degrees)       :    90.000000   90.000000  120.002841


  Quantities derived from the lattice vectors:
  | Reciprocal lattice vector 1:  0.399478  0.230665  0.000000
  | Reciprocal lattice vector 2:  0.000000  0.461308  0.000000
  | Reciprocal lattice vector 3:  0.000000  0.000000  0.060922
  | Unit cell volume                               :   0.220945E+05  A^3

  Fractional coordinates:
                         L1                L2                L3
       atom_frac         0.03329218        0.06664111        0.49999397  W
       atom_frac         0.16661906        0.13331900        0.51519666  S
       atom_frac         0.16650188        0.13301448        0.48478569  S
       atom_frac         0.03330808        0.26661368        0.49997919  W
       atom_frac         0.16676238        0.33334347        0.51515985  S
       atom_frac         0.16664798        0.33328612        0.48477936  S
       atom_frac         0.03329292        0.46658348        0.49999358  W
       atom_frac         0.16661791        0.53321820        0.51519662  S
       atom_frac         0.16650330        0.53340688        0.48478549  S
       atom_frac         0.03337425        0.66659942        0.50000770  W
       atom_frac         0.16662961        0.73325610        0.51522417  S
       atom_frac         0.16668678        0.73337186        0.48481113  S
       atom_frac         0.03337494        0.86669834        0.50000789  W
       atom_frac         0.16662929        0.93329609        0.51522444  S
       atom_frac         0.16668542        0.93323725        0.48481098  S
       atom_frac         0.23322906        0.06655078        0.50000764  W
       atom_frac         0.36680097        0.13360209        0.51518087  S
       atom_frac         0.36653629        0.13307314        0.48480526  S
       atom_frac         0.23338769        0.26641765        0.49996021  W
       atom_frac         0.36667987        0.33350680        0.51515837  S
       atom_frac         0.36599802        0.33226509        0.48465203  S
       atom_frac         0.23339321        0.46689878        0.49996013  W
       atom_frac         0.36667660        0.53309193        0.51515926  S
       atom_frac         0.36599695        0.53365562        0.48465135  S
       atom_frac         0.23322602        0.66660006        0.50000757  W
       atom_frac         0.36680116        0.73311939        0.51518064  S
       atom_frac         0.36653960        0.73338372        0.48480606  S
       atom_frac         0.23331045        0.86661992        0.50002451  W
       atom_frac         0.36667083        0.93329696        0.51522409  S
       atom_frac         0.36655541        0.93323818        0.48481119  S
       atom_frac         0.43332403        0.06655577        0.50000753  W
       atom_frac         0.56670398        0.13331858        0.51519642  S
       atom_frac         0.56651665        0.13301331        0.48478567  S
       atom_frac         0.43343017        0.26685331        0.49994627  W
       atom_frac         0.56683014        0.33350824        0.51515867  S
       atom_frac         0.56626969        0.33226649        0.48465144  S
       atom_frac         0.43109855        0.46551668        0.49982216  W
       atom_frac         0.56663841        0.53327284        0.51456830  S
       atom_frac         0.56662755        0.53325024        0.53335355  S
       atom_frac         0.56664166        0.53327999        0.48490154  S
       atom_frac         0.43343074        0.66649445        0.49994666  W
       atom_frac         0.56682857        0.73324151        0.51515955  S
       atom_frac         0.56626993        0.73392506        0.48465204  S
       atom_frac         0.43332488        0.86669641        0.50000775  W
       atom_frac         0.56670473        0.93330741        0.51519674  S
       atom_frac         0.56651849        0.93342156        0.48478628  S
       atom_frac         0.63335209        0.06663903        0.49999403  W
       atom_frac         0.76670379        0.13331244        0.51518814  S
       atom_frac         0.76662722        0.13327258        0.48478130  S
       atom_frac         0.63302614        0.26641758        0.49996002  W
       atom_frac         0.76658215        0.33334245        0.51515951  S
       atom_frac         0.76663996        0.33328629        0.48477961  S
       atom_frac         0.63441791        0.46551425        0.49982200  W
       atom_frac         0.76641521        0.53309186        0.51515947  S
       atom_frac         0.76765980        0.53365631        0.48465132  S
       atom_frac         0.63441000        0.66882282        0.49982272  W
       atom_frac         0.76641404        0.73323989        0.51515945  S
       atom_frac         0.76765674        0.73392323        0.48465231  S
       atom_frac         0.63302963        0.86653318        0.49996083  W
       atom_frac         0.76658326        0.93316367        0.51516042  S
       atom_frac         0.76663887        0.93327481        0.48477994  S
       atom_frac         0.83330828        0.06661893        0.49997934  W
       atom_frac         0.96660985        0.13331120        0.51518793  S
       atom_frac         0.96664657        0.13327188        0.48478150  S
       atom_frac         0.83330741        0.26661336        0.49997906  W
       atom_frac         0.96661221        0.33322262        0.51518727  S
       atom_frac         0.96664982        0.33329721        0.48478181  S
       atom_frac         0.83350517        0.46690120        0.49996019  W
       atom_frac         0.96660273        0.53321746        0.51519666  S
       atom_frac         0.96690587        0.53340666        0.48478568  S
       atom_frac         0.83306707        0.66649386        0.49994686  W
       atom_frac         0.96632180        0.73312089        0.51518082  S
       atom_frac         0.96684759        0.73338484        0.48480618  S
       atom_frac         0.83350354        0.86653160        0.49996086  W
       atom_frac         0.96660491        0.93330788        0.51519665  S
       atom_frac         0.96690536        0.93342145        0.48478643  S

 
  Finished reading input file 'control.in'.
 

------------------------------------------------------------
          Reading geometry description geometry.in.
------------------------------------------------------------
 
  Consistency checks for stacksize environment parameter are next.
 
  | Maximum stacksize for task 0: unlimited
  | Maximum stacksize for task 1: unlimited
  | Maximum stacksize for task 2: unlimited
  | Maximum stacksize for task 3: unlimited
  | Maximum stacksize for task 4: unlimited
  | Maximum stacksize for task 5: unlimited
  | Maximum stacksize for task 6: unlimited
  | Maximum stacksize for task 7: unlimited
  | Maximum stacksize for task 8: unlimited
  | Maximum stacksize for task 9: unlimited
  | Maximum stacksize for task 10: unlimited
  | Maximum stacksize for task 11: unlimited
  | Maximum stacksize for task 12: unlimited
  | Maximum stacksize for task 13: unlimited
  | Maximum stacksize for task 14: unlimited
  | Maximum stacksize for task 15: unlimited
  | Maximum stacksize for task 16: unlimited
  | Maximum stacksize for task 17: unlimited
  | Maximum stacksize for task 18: unlimited
  | Maximum stacksize for task 19: unlimited
  | Maximum stacksize for task 20: unlimited
  | Maximum stacksize for task 21: unlimited
  | Maximum stacksize for task 22: unlimited
  | Maximum stacksize for task 23: unlimited
  | Maximum stacksize for task 24: unlimited
  | Maximum stacksize for task 25: unlimited
  | Maximum stacksize for task 26: unlimited
  | Maximum stacksize for task 27: unlimited
  | Maximum stacksize for task 28: unlimited
  | Maximum stacksize for task 29: unlimited
  | Maximum stacksize for task 30: unlimited
  | Maximum stacksize for task 31: unlimited
  | Maximum stacksize for task 32: unlimited
  | Maximum stacksize for task 33: unlimited
  | Maximum stacksize for task 34: unlimited
  | Maximum stacksize for task 35: unlimited
  | Maximum stacksize for task 36: unlimited
  | Maximum stacksize for task 37: unlimited
  | Maximum stacksize for task 38: unlimited
  | Maximum stacksize for task 39: unlimited
  | Maximum stacksize for task 40: unlimited
  | Maximum stacksize for task 41: unlimited
  | Maximum stacksize for task 42: unlimited
  | Maximum stacksize for task 43: unlimited
  | Maximum stacksize for task 44: unlimited
  | Maximum stacksize for task 45: unlimited
  | Maximum stacksize for task 46: unlimited
  | Maximum stacksize for task 47: unlimited
  | Maximum stacksize for task 48: unlimited
  | Maximum stacksize for task 49: unlimited
  | Maximum stacksize for task 50: unlimited
  | Maximum stacksize for task 51: unlimited
  | Maximum stacksize for task 52: unlimited
  | Maximum stacksize for task 53: unlimited
  | Maximum stacksize for task 54: unlimited
  | Maximum stacksize for task 55: unlimited
  | Maximum stacksize for task 56: unlimited
  | Maximum stacksize for task 57: unlimited
  | Maximum stacksize for task 58: unlimited
  | Maximum stacksize for task 59: unlimited
  | Maximum stacksize for task 60: unlimited
  | Maximum stacksize for task 61: unlimited
  | Maximum stacksize for task 62: unlimited
  | Maximum stacksize for task 63: unlimited
  | Maximum stacksize for task 64: unlimited
  | Maximum stacksize for task 65: unlimited
  | Maximum stacksize for task 66: unlimited
  | Maximum stacksize for task 67: unlimited
  | Maximum stacksize for task 68: unlimited
  | Maximum stacksize for task 69: unlimited
  | Maximum stacksize for task 70: unlimited
  | Maximum stacksize for task 71: unlimited
  | Maximum stacksize for task 72: unlimited
  | Maximum stacksize for task 73: unlimited
  | Maximum stacksize for task 74: unlimited
  | Maximum stacksize for task 75: unlimited
  | Maximum stacksize for task 76: unlimited
  | Maximum stacksize for task 77: unlimited
  | Maximum stacksize for task 78: unlimited
  | Maximum stacksize for task 79: unlimited
  | Maximum stacksize for task 80: unlimited
  | Maximum stacksize for task 81: unlimited
  | Maximum stacksize for task 82: unlimited
  | Maximum stacksize for task 83: unlimited
  | Maximum stacksize for task 84: unlimited
  | Maximum stacksize for task 85: unlimited
  | Maximum stacksize for task 86: unlimited
  | Maximum stacksize for task 87: unlimited
  | Maximum stacksize for task 88: unlimited
  | Maximum stacksize for task 89: unlimited
  | Maximum stacksize for task 90: unlimited
  | Maximum stacksize for task 91: unlimited
  | Maximum stacksize for task 92: unlimited
  | Maximum stacksize for task 93: unlimited
  | Maximum stacksize for task 94: unlimited
  | Maximum stacksize for task 95: unlimited
  | Maximum stacksize for task 96: unlimited
  | Maximum stacksize for task 97: unlimited
  | Maximum stacksize for task 98: unlimited
  | Maximum stacksize for task 99: unlimited
  | Maximum stacksize for task 100: unlimited
  | Maximum stacksize for task 101: unlimited
  | Maximum stacksize for task 102: unlimited
  | Maximum stacksize for task 103: unlimited
  | Maximum stacksize for task 104: unlimited
  | Maximum stacksize for task 105: unlimited
  | Maximum stacksize for task 106: unlimited
  | Maximum stacksize for task 107: unlimited
  | Maximum stacksize for task 108: unlimited
  | Maximum stacksize for task 109: unlimited
  | Maximum stacksize for task 110: unlimited
  | Maximum stacksize for task 111: unlimited
  | Maximum stacksize for task 112: unlimited
  | Maximum stacksize for task 113: unlimited
  | Maximum stacksize for task 114: unlimited
  | Maximum stacksize for task 115: unlimited
  | Maximum stacksize for task 116: unlimited
  | Maximum stacksize for task 117: unlimited
  | Maximum stacksize for task 118: unlimited
  | Maximum stacksize for task 119: unlimited
  | Maximum stacksize for task 120: unlimited
  | Maximum stacksize for task 121: unlimited
  | Maximum stacksize for task 122: unlimited
  | Maximum stacksize for task 123: unlimited
  | Maximum stacksize for task 124: unlimited
  | Maximum stacksize for task 125: unlimited
  | Maximum stacksize for task 126: unlimited
  | Maximum stacksize for task 127: unlimited
  | Maximum stacksize for task 128: unlimited
  | Maximum stacksize for task 129: unlimited
  | Maximum stacksize for task 130: unlimited
  | Maximum stacksize for task 131: unlimited
  | Maximum stacksize for task 132: unlimited
  | Maximum stacksize for task 133: unlimited
  | Maximum stacksize for task 134: unlimited
  | Maximum stacksize for task 135: unlimited
  | Maximum stacksize for task 136: unlimited
  | Maximum stacksize for task 137: unlimited
  | Maximum stacksize for task 138: unlimited
  | Maximum stacksize for task 139: unlimited
  | Maximum stacksize for task 140: unlimited
  | Maximum stacksize for task 141: unlimited
  | Maximum stacksize for task 142: unlimited
  | Maximum stacksize for task 143: unlimited
  | Maximum stacksize for task 144: unlimited
  | Maximum stacksize for task 145: unlimited
  | Maximum stacksize for task 146: unlimited
  | Maximum stacksize for task 147: unlimited
  | Maximum stacksize for task 148: unlimited
  | Maximum stacksize for task 149: unlimited
  | Maximum stacksize for task 150: unlimited
  | Maximum stacksize for task 151: unlimited
  | Maximum stacksize for task 152: unlimited
  | Maximum stacksize for task 153: unlimited
  | Maximum stacksize for task 154: unlimited
  | Maximum stacksize for task 155: unlimited
  | Maximum stacksize for task 156: unlimited
  | Maximum stacksize for task 157: unlimited
  | Maximum stacksize for task 158: unlimited
  | Maximum stacksize for task 159: unlimited
  | Maximum stacksize for task 160: unlimited
  | Maximum stacksize for task 161: unlimited
  | Maximum stacksize for task 162: unlimited
  | Maximum stacksize for task 163: unlimited
  | Maximum stacksize for task 164: unlimited
  | Maximum stacksize for task 165: unlimited
  | Maximum stacksize for task 166: unlimited
  | Maximum stacksize for task 167: unlimited
  | Maximum stacksize for task 168: unlimited
  | Maximum stacksize for task 169: unlimited
  | Maximum stacksize for task 170: unlimited
  | Maximum stacksize for task 171: unlimited
  | Maximum stacksize for task 172: unlimited
  | Maximum stacksize for task 173: unlimited
  | Maximum stacksize for task 174: unlimited
  | Maximum stacksize for task 175: unlimited
  | Maximum stacksize for task 176: unlimited
  | Maximum stacksize for task 177: unlimited
  | Maximum stacksize for task 178: unlimited
  | Maximum stacksize for task 179: unlimited
  | Maximum stacksize for task 180: unlimited
  | Maximum stacksize for task 181: unlimited
  | Maximum stacksize for task 182: unlimited
  | Maximum stacksize for task 183: unlimited
  | Maximum stacksize for task 184: unlimited
  | Maximum stacksize for task 185: unlimited
  | Maximum stacksize for task 186: unlimited
  | Maximum stacksize for task 187: unlimited
  | Maximum stacksize for task 188: unlimited
  | Maximum stacksize for task 189: unlimited
  | Maximum stacksize for task 190: unlimited
  | Maximum stacksize for task 191: unlimited
  | Maximum stacksize for task 192: unlimited
  | Maximum stacksize for task 193: unlimited
  | Maximum stacksize for task 194: unlimited
  | Maximum stacksize for task 195: unlimited
  | Maximum stacksize for task 196: unlimited
  | Maximum stacksize for task 197: unlimited
  | Maximum stacksize for task 198: unlimited
  | Maximum stacksize for task 199: unlimited
  | Maximum stacksize for task 200: unlimited
  | Maximum stacksize for task 201: unlimited
  | Maximum stacksize for task 202: unlimited
  | Maximum stacksize for task 203: unlimited
  | Maximum stacksize for task 204: unlimited
  | Maximum stacksize for task 205: unlimited
  | Maximum stacksize for task 206: unlimited
  | Maximum stacksize for task 207: unlimited
  | Maximum stacksize for task 208: unlimited
  | Maximum stacksize for task 209: unlimited
  | Maximum stacksize for task 210: unlimited
  | Maximum stacksize for task 211: unlimited
  | Maximum stacksize for task 212: unlimited
  | Maximum stacksize for task 213: unlimited
  | Maximum stacksize for task 214: unlimited
  | Maximum stacksize for task 215: unlimited
  | Maximum stacksize for task 216: unlimited
  | Maximum stacksize for task 217: unlimited
  | Maximum stacksize for task 218: unlimited
  | Maximum stacksize for task 219: unlimited
  | Maximum stacksize for task 220: unlimited
  | Maximum stacksize for task 221: unlimited
  | Maximum stacksize for task 222: unlimited
  | Maximum stacksize for task 223: unlimited
  | Maximum stacksize for task 224: unlimited
  | Maximum stacksize for task 225: unlimited
  | Maximum stacksize for task 226: unlimited
  | Maximum stacksize for task 227: unlimited
  | Maximum stacksize for task 228: unlimited
  | Maximum stacksize for task 229: unlimited
  | Maximum stacksize for task 230: unlimited
  | Maximum stacksize for task 231: unlimited
  | Maximum stacksize for task 232: unlimited
  | Maximum stacksize for task 233: unlimited
  | Maximum stacksize for task 234: unlimited
  | Maximum stacksize for task 235: unlimited
  | Maximum stacksize for task 236: unlimited
  | Maximum stacksize for task 237: unlimited
  | Maximum stacksize for task 238: unlimited
  | Maximum stacksize for task 239: unlimited
  | Maximum stacksize for task 240: unlimited
  | Maximum stacksize for task 241: unlimited
  | Maximum stacksize for task 242: unlimited
  | Maximum stacksize for task 243: unlimited
  | Maximum stacksize for task 244: unlimited
  | Maximum stacksize for task 245: unlimited
  | Maximum stacksize for task 246: unlimited
  | Maximum stacksize for task 247: unlimited
  | Maximum stacksize for task 248: unlimited
  | Maximum stacksize for task 249: unlimited
  | Maximum stacksize for task 250: unlimited
  | Maximum stacksize for task 251: unlimited
  | Maximum stacksize for task 252: unlimited
  | Maximum stacksize for task 253: unlimited
  | Maximum stacksize for task 254: unlimited
  | Maximum stacksize for task 255: unlimited
  | Maximum stacksize for task 256: unlimited
  | Maximum stacksize for task 257: unlimited
  | Maximum stacksize for task 258: unlimited
  | Maximum stacksize for task 259: unlimited
  | Maximum stacksize for task 260: unlimited
  | Maximum stacksize for task 261: unlimited
  | Maximum stacksize for task 262: unlimited
  | Maximum stacksize for task 263: unlimited
  | Maximum stacksize for task 264: unlimited
  | Maximum stacksize for task 265: unlimited
  | Maximum stacksize for task 266: unlimited
  | Maximum stacksize for task 267: unlimited
  | Maximum stacksize for task 268: unlimited
  | Maximum stacksize for task 269: unlimited
  | Maximum stacksize for task 270: unlimited
  | Maximum stacksize for task 271: unlimited
  | Maximum stacksize for task 272: unlimited
  | Maximum stacksize for task 273: unlimited
  | Maximum stacksize for task 274: unlimited
  | Maximum stacksize for task 275: unlimited
  | Maximum stacksize for task 276: unlimited
  | Maximum stacksize for task 277: unlimited
  | Maximum stacksize for task 278: unlimited
  | Maximum stacksize for task 279: unlimited
  | Maximum stacksize for task 280: unlimited
  | Maximum stacksize for task 281: unlimited
  | Maximum stacksize for task 282: unlimited
  | Maximum stacksize for task 283: unlimited
  | Maximum stacksize for task 284: unlimited
  | Maximum stacksize for task 285: unlimited
  | Maximum stacksize for task 286: unlimited
  | Maximum stacksize for task 287: unlimited
  | Current stacksize for task 0: unlimited
  | Current stacksize for task 1: unlimited
  | Current stacksize for task 2: unlimited
  | Current stacksize for task 3: unlimited
  | Current stacksize for task 4: unlimited
  | Current stacksize for task 5: unlimited
  | Current stacksize for task 6: unlimited
  | Current stacksize for task 7: unlimited
  | Current stacksize for task 8: unlimited
  | Current stacksize for task 9: unlimited
  | Current stacksize for task 10: unlimited
  | Current stacksize for task 11: unlimited
  | Current stacksize for task 12: unlimited
  | Current stacksize for task 13: unlimited
  | Current stacksize for task 14: unlimited
  | Current stacksize for task 15: unlimited
  | Current stacksize for task 16: unlimited
  | Current stacksize for task 17: unlimited
  | Current stacksize for task 18: unlimited
  | Current stacksize for task 19: unlimited
  | Current stacksize for task 20: unlimited
  | Current stacksize for task 21: unlimited
  | Current stacksize for task 22: unlimited
  | Current stacksize for task 23: unlimited
  | Current stacksize for task 24: unlimited
  | Current stacksize for task 25: unlimited
  | Current stacksize for task 26: unlimited
  | Current stacksize for task 27: unlimited
  | Current stacksize for task 28: unlimited
  | Current stacksize for task 29: unlimited
  | Current stacksize for task 30: unlimited
  | Current stacksize for task 31: unlimited
  | Current stacksize for task 32: unlimited
  | Current stacksize for task 33: unlimited
  | Current stacksize for task 34: unlimited
  | Current stacksize for task 35: unlimited
  | Current stacksize for task 36: unlimited
  | Current stacksize for task 37: unlimited
  | Current stacksize for task 38: unlimited
  | Current stacksize for task 39: unlimited
  | Current stacksize for task 40: unlimited
  | Current stacksize for task 41: unlimited
  | Current stacksize for task 42: unlimited
  | Current stacksize for task 43: unlimited
  | Current stacksize for task 44: unlimited
  | Current stacksize for task 45: unlimited
  | Current stacksize for task 46: unlimited
  | Current stacksize for task 47: unlimited
  | Current stacksize for task 48: unlimited
  | Current stacksize for task 49: unlimited
  | Current stacksize for task 50: unlimited
  | Current stacksize for task 51: unlimited
  | Current stacksize for task 52: unlimited
  | Current stacksize for task 53: unlimited
  | Current stacksize for task 54: unlimited
  | Current stacksize for task 55: unlimited
  | Current stacksize for task 56: unlimited
  | Current stacksize for task 57: unlimited
  | Current stacksize for task 58: unlimited
  | Current stacksize for task 59: unlimited
  | Current stacksize for task 60: unlimited
  | Current stacksize for task 61: unlimited
  | Current stacksize for task 62: unlimited
  | Current stacksize for task 63: unlimited
  | Current stacksize for task 64: unlimited
  | Current stacksize for task 65: unlimited
  | Current stacksize for task 66: unlimited
  | Current stacksize for task 67: unlimited
  | Current stacksize for task 68: unlimited
  | Current stacksize for task 69: unlimited
  | Current stacksize for task 70: unlimited
  | Current stacksize for task 71: unlimited
  | Current stacksize for task 72: unlimited
  | Current stacksize for task 73: unlimited
  | Current stacksize for task 74: unlimited
  | Current stacksize for task 75: unlimited
  | Current stacksize for task 76: unlimited
  | Current stacksize for task 77: unlimited
  | Current stacksize for task 78: unlimited
  | Current stacksize for task 79: unlimited
  | Current stacksize for task 80: unlimited
  | Current stacksize for task 81: unlimited
  | Current stacksize for task 82: unlimited
  | Current stacksize for task 83: unlimited
  | Current stacksize for task 84: unlimited
  | Current stacksize for task 85: unlimited
  | Current stacksize for task 86: unlimited
  | Current stacksize for task 87: unlimited
  | Current stacksize for task 88: unlimited
  | Current stacksize for task 89: unlimited
  | Current stacksize for task 90: unlimited
  | Current stacksize for task 91: unlimited
  | Current stacksize for task 92: unlimited
  | Current stacksize for task 93: unlimited
  | Current stacksize for task 94: unlimited
  | Current stacksize for task 95: unlimited
  | Current stacksize for task 96: unlimited
  | Current stacksize for task 97: unlimited
  | Current stacksize for task 98: unlimited
  | Current stacksize for task 99: unlimited
  | Current stacksize for task 100: unlimited
  | Current stacksize for task 101: unlimited
  | Current stacksize for task 102: unlimited
  | Current stacksize for task 103: unlimited
  | Current stacksize for task 104: unlimited
  | Current stacksize for task 105: unlimited
  | Current stacksize for task 106: unlimited
  | Current stacksize for task 107: unlimited
  | Current stacksize for task 108: unlimited
  | Current stacksize for task 109: unlimited
  | Current stacksize for task 110: unlimited
  | Current stacksize for task 111: unlimited
  | Current stacksize for task 112: unlimited
  | Current stacksize for task 113: unlimited
  | Current stacksize for task 114: unlimited
  | Current stacksize for task 115: unlimited
  | Current stacksize for task 116: unlimited
  | Current stacksize for task 117: unlimited
  | Current stacksize for task 118: unlimited
  | Current stacksize for task 119: unlimited
  | Current stacksize for task 120: unlimited
  | Current stacksize for task 121: unlimited
  | Current stacksize for task 122: unlimited
  | Current stacksize for task 123: unlimited
  | Current stacksize for task 124: unlimited
  | Current stacksize for task 125: unlimited
  | Current stacksize for task 126: unlimited
  | Current stacksize for task 127: unlimited
  | Current stacksize for task 128: unlimited
  | Current stacksize for task 129: unlimited
  | Current stacksize for task 130: unlimited
  | Current stacksize for task 131: unlimited
  | Current stacksize for task 132: unlimited
  | Current stacksize for task 133: unlimited
  | Current stacksize for task 134: unlimited
  | Current stacksize for task 135: unlimited
  | Current stacksize for task 136: unlimited
  | Current stacksize for task 137: unlimited
  | Current stacksize for task 138: unlimited
  | Current stacksize for task 139: unlimited
  | Current stacksize for task 140: unlimited
  | Current stacksize for task 141: unlimited
  | Current stacksize for task 142: unlimited
  | Current stacksize for task 143: unlimited
  | Current stacksize for task 144: unlimited
  | Current stacksize for task 145: unlimited
  | Current stacksize for task 146: unlimited
  | Current stacksize for task 147: unlimited
  | Current stacksize for task 148: unlimited
  | Current stacksize for task 149: unlimited
  | Current stacksize for task 150: unlimited
  | Current stacksize for task 151: unlimited
  | Current stacksize for task 152: unlimited
  | Current stacksize for task 153: unlimited
  | Current stacksize for task 154: unlimited
  | Current stacksize for task 155: unlimited
  | Current stacksize for task 156: unlimited
  | Current stacksize for task 157: unlimited
  | Current stacksize for task 158: unlimited
  | Current stacksize for task 159: unlimited
  | Current stacksize for task 160: unlimited
  | Current stacksize for task 161: unlimited
  | Current stacksize for task 162: unlimited
  | Current stacksize for task 163: unlimited
  | Current stacksize for task 164: unlimited
  | Current stacksize for task 165: unlimited
  | Current stacksize for task 166: unlimited
  | Current stacksize for task 167: unlimited
  | Current stacksize for task 168: unlimited
  | Current stacksize for task 169: unlimited
  | Current stacksize for task 170: unlimited
  | Current stacksize for task 171: unlimited
  | Current stacksize for task 172: unlimited
  | Current stacksize for task 173: unlimited
  | Current stacksize for task 174: unlimited
  | Current stacksize for task 175: unlimited
  | Current stacksize for task 176: unlimited
  | Current stacksize for task 177: unlimited
  | Current stacksize for task 178: unlimited
  | Current stacksize for task 179: unlimited
  | Current stacksize for task 180: unlimited
  | Current stacksize for task 181: unlimited
  | Current stacksize for task 182: unlimited
  | Current stacksize for task 183: unlimited
  | Current stacksize for task 184: unlimited
  | Current stacksize for task 185: unlimited
  | Current stacksize for task 186: unlimited
  | Current stacksize for task 187: unlimited
  | Current stacksize for task 188: unlimited
  | Current stacksize for task 189: unlimited
  | Current stacksize for task 190: unlimited
  | Current stacksize for task 191: unlimited
  | Current stacksize for task 192: unlimited
  | Current stacksize for task 193: unlimited
  | Current stacksize for task 194: unlimited
  | Current stacksize for task 195: unlimited
  | Current stacksize for task 196: unlimited
  | Current stacksize for task 197: unlimited
  | Current stacksize for task 198: unlimited
[...]
  Final atomic structure:
                         x [A]             y [A]             z [A]
  lattice_vector        15.72847685        0.00000000        0.00000000
  lattice_vector        -7.86461685       13.62035640        0.00000000
  lattice_vector         0.00000000        0.00000000      103.13570646

            atom        -0.00046416        0.90762317       51.56718484  W
            atom         1.57214731        1.81585670       53.13516009  S
            atom         1.57270880        1.81170465       49.99875970  S
            atom        -1.57296508        3.63140088       51.56566145  W
            atom         0.00128277        4.54022743       53.13138732  S
            atom        -0.00004136        4.53945345       49.99805573  S
            atom        -3.14586309        6.35500625       51.56715891  W
            atom        -1.57292505        7.26264451       53.13514461  S
            atom        -1.57621899        7.26522121       49.99874486  S
            atom        -4.71763722        9.07933819       51.56866518  W
            atom        -3.14594762        9.98718314       53.13808008  S
            atom        -3.14595565        9.98878714       50.00136549  S
            atom        -6.29134248       11.80473714       51.56868286  W
            atom        -4.71920353       12.71182581       53.13808477  S
            atom        -4.71783390       12.71101302       50.00137117  S
            atom         3.14491430        0.90646758       51.56866249  W
            atom         4.71851025        1.81971924       53.13355561  S
            atom         4.71850336        1.81251833       50.00080421  S
            atom         1.57558073        3.62871592       51.56374029  W
            atom         3.14439681        4.54249875       53.13124502  S
            atom         3.14346451        4.52555340       49.98486733  S
            atom        -0.00108316        6.35930361       51.56372308  W
            atom         1.57472938        7.26089303       53.13126715  S
            atom         1.55959379        7.26859444       49.98485370  S
            atom        -1.57424255        9.07934424       51.56865865  W
            atom         0.00353082        9.98536399       53.13355495  S
            atom        -0.00267511        9.98895817       50.00082461  S
            atom        -3.14600875       11.80364868       51.57040403  W
            atom        -1.57283946       12.71183114       53.13806962  S
            atom        -1.57422395       12.71101870       50.00136334  S
            atom         6.29213574        0.90648940       51.56864866  W
            atom         7.86488183        1.81585388       53.13515365  S
            atom         7.86432435        1.81170228       49.99875533  S
            atom         4.71846101        3.63466922       51.56230326  W
            atom         6.29247211        4.54249913       53.13125132  S
            atom         6.29340054        4.52555635       49.98485344  S
            atom         3.11942040        6.34044491       51.54947862  W
            atom         4.71836121        7.26337485       53.07036380  S
            atom         4.71837714        7.26306688       55.00780928  S
            atom         4.71835834        7.26346947       50.01066345  S
            atom         1.57544851        9.07792057       51.56233351  W
            atom         3.14870466        9.98700779       53.13131230  S
            atom         3.13451952        9.99630597       49.98491420  S
            atom        -0.00068283       11.80472935       51.56866167  W
            atom         1.57328414       12.71196357       53.13517539  S
            atom         1.56944945       12.71351952       49.99877973  S
            atom         9.43752911        0.90761252       51.56717888  W
            atom        11.01061894        1.81577018       53.13426917  S
            atom        11.00974779        1.81523676       49.99828004  S
            atom         7.86129555        3.62871178       51.56372541  W
            atom         9.43557698        4.54022559       53.13137881  S
            atom         9.43690549        4.53945805       49.99805971  S
            atom         6.31732750        6.34043000       51.54947467  W
            atom         7.86197593        7.26089028       53.13127423  S
            atom         7.87711502        7.26860330       49.98485502  S
            atom         4.71828839        9.10962250       51.54955179  W
            atom         6.28785808        9.98699992       53.13131585  S
            atom         6.30205497        9.99629835       49.98492756  S
            atom         3.14162174       11.80251686       51.56378064  W
            atom         4.71820814       12.71002154       53.13144254  S
            atom         4.71821371       12.71152655       49.99811259  S
            atom        12.58275524        0.90737457       51.56569476  W
            atom        14.15487490        1.81576534       53.13426753  S
            atom        14.15574892        1.81523103       49.99828687  S
            atom        11.00986153        3.63140567       51.56566449  W
            atom        12.58267067        4.53860352       53.13423801  S
            atom        12.58267187        4.53961210       49.99827324  S
            atom         9.43781385        6.35931505       51.56371807  W
            atom        11.00964037        7.26263722       53.13514861  S
            atom        11.01293291        7.26522133       49.99875087  S
            atom         7.86116605        9.07791608       51.56234945  W
            atom         9.43304536        9.98536468       53.13357302  S
            atom         9.43924728        9.98896525       50.00084225  S
            atom         6.29482641       11.80250721       51.56378851  W
            atom         7.86312936       12.71196836       53.13518402  S
            atom         7.86697348       12.71351737       49.99879414  S

  Fractional coordinates:
                         L1                L2                L3
       atom_frac         0.03329072        0.06663726        0.49999352  W
       atom_frac         0.16661834        0.13331932        0.51519655  S
       atom_frac         0.16650161        0.13301448        0.48478613  S
       atom_frac         0.03330680        0.26661570        0.49997875  W
       atom_frac         0.16676023        0.33334131        0.51515997  S
       atom_frac         0.16664763        0.33328448        0.48477930  S
       atom_frac         0.03329131        0.46658149        0.49999327  W
       atom_frac         0.16661784        0.53321986        0.51519640  S
       atom_frac         0.16650301        0.53340904        0.48478598  S
       atom_frac         0.03337395        0.66660063        0.50000787  W
       atom_frac         0.16662869        0.73325417        0.51522486  S
       atom_frac         0.16668706        0.73337194        0.48481139  S
       atom_frac         0.03337298        0.86669811        0.50000804  W
       atom_frac         0.16662852        0.93329612        0.51522491  S
       atom_frac         0.16668577        0.93323645        0.48481145  S
       atom_frac         0.23322815        0.06655241        0.50000785  W
       atom_frac         0.36680258        0.13360291        0.51518099  S
       atom_frac         0.36653779        0.13307422        0.48480595  S
       atom_frac         0.23338946        0.26641857        0.49996012  W
       atom_frac         0.36667950        0.33350807        0.51515859  S
       atom_frac         0.36599813        0.33226395        0.48465143  S
       atom_frac         0.23339087        0.46689700        0.49995995  W
       atom_frac         0.36667810        0.53309127        0.51515880  S
       atom_frac         0.36599852        0.53365670        0.48465130  S
       atom_frac         0.23322789        0.66660108        0.50000781  W
       atom_frac         0.36680243        0.73312061        0.51518099  S
       atom_frac         0.36653981        0.73338449        0.48480615  S
       atom_frac         0.23331002        0.86661819        0.50002473  W
       atom_frac         0.36667123        0.93329651        0.51522476  S
       atom_frac         0.36655338        0.93323686        0.48481137  S
       atom_frac         0.43332597        0.06655402        0.50000771  W
       atom_frac         0.56670367        0.13331912        0.51519649  S
       atom_frac         0.56651582        0.13301431        0.48478608  S
       atom_frac         0.43342904        0.26685566        0.49994619  W
       atom_frac         0.56683082        0.33350810        0.51515865  S
       atom_frac         0.56626786        0.33226417        0.48465129  S
       atom_frac         0.43109687        0.46551241        0.49982184  W
       atom_frac         0.56663801        0.53327348        0.51456829  S
       atom_frac         0.56662772        0.53325087        0.53335369  S
       atom_frac         0.56664130        0.53328043        0.48490155  S
       atom_frac         0.43342967        0.66649655        0.49994648  W
       atom_frac         0.56682962        0.73324130        0.51515924  S
       atom_frac         0.56626909        0.73392396        0.48465188  S
       atom_frac         0.43332621        0.86669754        0.50000784  W
       atom_frac         0.56670332        0.93330624        0.51519670  S
       atom_frac         0.56651664        0.93342047        0.48478632  S
       atom_frac         0.63334801        0.06663647        0.49999346  W
       atom_frac         0.76670325        0.13331297        0.51518791  S
       atom_frac         0.76662828        0.13327381        0.48478148  S
       atom_frac         0.63302844        0.26641827        0.49995998  W
       atom_frac         0.76658266        0.33334117        0.51515989  S
       atom_frac         0.76663895        0.33328482        0.48477934  S
       atom_frac         0.63441589        0.46551131        0.49982180  W
       atom_frac         0.76641451        0.53309106        0.51515887  S
       atom_frac         0.76766019        0.53365735        0.48465131  S
       atom_frac         0.63441195        0.66882409        0.49982255  W
       atom_frac         0.76641340        0.73324072        0.51515928  S
       atom_frac         0.76765738        0.73392341        0.48465201  S
       atom_frac         0.63302940        0.86653510        0.49996051  W
       atom_frac         0.76658298        0.93316365        0.51516050  S
       atom_frac         0.76663859        0.93327415        0.48477985  S
       atom_frac         0.83330944        0.06661900        0.49997907  W
       atom_frac         0.96661156        0.13331262        0.51518790  S
       atom_frac         0.96664751        0.13327339        0.48478154  S
       atom_frac         0.83330985        0.26661605        0.49997878  W
       atom_frac         0.96661201        0.33322208        0.51518761  S
       atom_frac         0.96664912        0.33329613        0.48478141  S
       atom_frac         0.83350642        0.46689784        0.49995991  W
       atom_frac         0.96660383        0.53321932        0.51519644  S
       atom_frac         0.96690804        0.53340905        0.48478604  S
       atom_frac         0.83306881        0.66649622        0.49994664  W
       atom_frac         0.96632106        0.73312066        0.51518116  S
       atom_frac         0.96684756        0.73338501        0.48480632  S
       atom_frac         0.83350648        0.86653439        0.49996059  W
       atom_frac         0.96660524        0.93330659        0.51519678  S
       atom_frac         0.96690651        0.93342032        0.48478646  S
------------------------------------------------------------

------------------------------------------------------------------------------
  Final output of selected total energy values:

  The following output summarizes some interesting total energy values
  at the end of a run (AFTER all relaxation, molecular dynamics, etc.).

  | Total energy of the DFT / Hartree-Fock s.c.f. calculation      :      -11872219.549621765 eV
  | Final zero-broadening corrected energy (caution - metals only) :      -11872219.549621765 eV
  | For reference only, the value of 1 Hartree used in FHI-aims is :             27.211384500 eV
  | For reference only, the overall average (free atom contribution
  | + realspace contribution) of the electrostatic potential after
  | s.c.f. convergence is                                          :             -1.223945132 eV

  Before relying on these values, please be sure to understand exactly which
  total energy value is referred to by a given number. Different objects may
  all carry the same name 'total energy'. Definitions:

  Total energy of the DFT / Hartree-Fock s.c.f. calculation:
  | Note that this energy does not include ANY quantities calculated after the
  | s.c.f. cycle, in particular not ANY RPA, MP2, etc. many-body perturbation terms.

  Final zero-broadening corrected energy:
  | For metallic systems only, a broadening of the occupation numbers at the Fermi
  | level can be extrapolated back to zero broadening by an electron-gas inspired
  | formula. For all systems that are not real metals, this value can be
  | meaningless and should be avoided.

------------------------------------------------------------------------------
  Methods described in the following list of references were used in this FHI-aims run.
  If you publish the results, please make sure to cite these reference if they apply.
  FHI-aims is an academic code, and for our developers (often, Ph.D. students
  and postdocs), scientific credit in the community is essential.
  Thank you for helping us!

  For any use of FHI-aims, please cite:

    Volker Blum, Ralf Gehrke, Felix Hanke, Paula Havu, Ville Havu,
    Xinguo Ren, Karsten Reuter, and Matthias Scheffler
    'Ab initio molecular simulations with numeric atom-centered orbitals'
    Computer Physics Communications 180, 2175-2196 (2009)
    http://dx.doi.org/10.1016/j.cpc.2009.06.022


  For Hartree-Fock, hybrid functionals, or many-body perturbation theory used in your run, please cite:

    Xinguo Ren, Patrick Rinke, Volker Blum, Juergen Wieferink, Alex Tkatchenko,
    Andrea Sanfilippo, Karsten Reuter, and Matthias Scheffler,
    'Resolution-of-identity approach to Hartree-Fock, hybrid density functionals,
    RPA, MP2, and GW with numeric atom-centered orbital basis functions'
    New Journal of Physics 14, 053020 (2012).
    http://dx.doi.org/10.1088/1367-2630/14/5/053020


  The provided symmetry information was generated with SPGlib:

    Atsushi Togo, Yusuke Seto, Dimitar Pashov
    SPGlib 1.7.3 obtained from http://spglib.sourceforge.net
    Copyright (C) 2008 Atsushi Togo


  The ELSI infrastructure was used in your run to solve the Kohn-Sham electronic structure.
  Please check out http://elsi-interchange.org to learn more.
  If scalability is important for your project, please acknowledge ELSI by citing:

    V. W-z. Yu, F. Corsetti, A. Garcia, W. P. Huhn, M. Jacquelin, W. Jia,
    B. Lange, L. Lin, J. Lu, W. Mi, A. Seifitokaldani, A. Vazquez-Mayagoitia,
    C. Yang, H. Yang, and V. Blum
    'ELSI: A unified software interface for Kohn-Sham electronic structure solvers'
    Computer Physics Communications 222, 267-285 (2018).
    http://dx.doi.org/10.1016/j.cpc.2017.09.007


  For the real-space grid partitioning and parallelization used in this calculation, please cite:

    Ville Havu, Volker Blum, Paula Havu, and Matthias Scheffler,
    'Efficient O(N) integration for all-electron electronic structure calculation'
    'using numerically tabulated basis functions'
    Journal of Computational Physics 228, 8367-8379 (2009).
    http://dx.doi.org/10.1016/j.jcp.2009.08.008


  The high-level electronic structure method used in your calculation
  employed our efficient localized resolution of identity for the Coulomb operator.
  Some calculations, especially large-scale hybrid density functional theory,
  are only possible thanks to this development. For this feature, please cite:

    Arvid Ihrig, Juergen Wieferink, Igor Ying Zhang, Matti Ropo, Xinguo Ren,
    Patrick Rinke, Matthias Scheffler, and Volker Blum,
    'Accurate localized resolution of identity approach for linear-scaling
    hybrid density functionals and for many-body perturbation theory'
    New Journal of Physics 117, 093020 (2015).
    http://dx.doi.org/10.1088/1367-2630/17/9/093020

  Of course, there are many other important community references, e.g., those cited in the
  above references. Our list is limited to references that describe implementations in the
  FHI-aims code. The reason is purely practical (length of this list) - please credit others as well.

------------------------------------------------------------
          Leaving FHI-aims.
          Date     :  20220207, Time     :  142829.253

          Computational steps:
          | Number of self-consistency cycles          :           33
          | Number of SCF (re)initializations          :            3
          | Number of relaxation steps                 :            2

          Detailed time accounting                     :  max(cpu_time)    wall_clock(cpu1)
          | Total time                                  :     5461.378 s        5462.366 s
          | Preparation time                            :        1.047 s           1.047 s
          | Boundary condition initalization            :        2.483 s           2.483 s
          | Grid partitioning                           :        5.926 s           5.925 s
          | Preloading free-atom quantities on grid     :        1.272 s           1.273 s
          | Free-atom superposition energy              :        0.155 s           0.154 s
          | Total time for integrations                 :       32.497 s          32.448 s
          | Product basis setup: Total time             :     1431.131 s        1431.146 s
          | Total time evaluating exchange matrix       :     3748.696 s        3748.208 s
          | Total time for solution of K.-S. equations  :       74.044 s          74.043 s
          | Total time for EV reorthonormalization      :        1.326 s           1.288 s
          | Total time for density & force components   :      104.547 s         104.550 s
          | Total time for mixing                       :        0.267 s           0.096 s
          | Total time for Hartree multipole update     :        0.390 s           0.389 s
          | Total time for Hartree multipole sum        :       40.191 s          40.190 s
          | Total time for total energy evaluation      :        0.050 s           0.035 s
          | Total time NSC force correction             :        5.363 s           5.363 s
          | Total time for scaled ZORA corrections      :        0.000 s           0.000 s
          | Total time for vdW correction               :        9.875 s           9.879 s

          Partial memory accounting:
          | Residual value for overall tracked memory usage across tasks:     0.000000 MB (should be 0.000000 MB)
          | Peak values for overall tracked memory usage:
          |   Minimum:      515.955 MB (on task 109 after allocating d_wave)
          |   Maximum:     1381.902 MB (on task 246 after allocating d_wave)
          |   Average:      798.395 MB
          | Largest tracked array allocation:
          |   Minimum:      131.973 MB (ovlp3fn for atom on task   0)
          |   Maximum:      311.605 MB (ovlp3fn for atom on task 246)
          |   Average:      172.653 MB
          Note:  These values currently only include a subset of arrays which are explicitly tracked.
          The "true" memory usage will be greater.

          Have a nice day.
------------------------------------------------------------
