------------------------------------------------------------
          Invoking FHI-aims ...

          When using FHI-aims, please cite the following reference:

            Volker Blum, Ralf Gehrke, Felix Hanke, Paula Havu,
            Ville Havu, Xinguo Ren, Karsten Reuter, and Matthias Scheffler,
            'Ab Initio Molecular Simulations with Numeric Atom-Centered Orbitals',
            Computer Physics Communications 180, 2175-2196 (2009)

          In addition, many other developments in FHI-aims are likely important for
          your particular application. A partial list of references is given at the end of
          this file. Thank you for giving credit to the authors of these developments.

          For any questions about FHI-aims, please visit our slack channel at

            https://fhi-aims.slack.com

          and our main development and support site at

            https://aims-git.rz-berlin.mpg.de .

          The latter site, in particular, has a wiki to collect information, as well
          as an issue tracker to log discussions, suggest improvements, and report issues
          or bugs. https://aims-git.rz-berlin.mpg.de is also the main development site
          of the project and all new and updated code versions can be obtained there.
          Please send an email to aims-coordinators@fhi-berlin.mpg.de and we will add
          you to these sites. They are for you and everyone is welcome there.

------------------------------------------------------------



  Date     :  20220915, Time     :  191105.000
  Time zero on CPU 1             :   0.347897000000000E+01  s.
  Internal wall clock time zero  :           432501065.000  s.

  FHI-aims created a unique identifier for this run for later identification
  aims_uuid : 7BA731C2-FA01-4DD3-A2DC-F8727659BF4E

  Build configuration of the current instance of FHI-aims
  -------------------------------------------------------
  FHI-aims version      : 220117
  Commit number         : 0c0e6afe2
  CMake host system     : Linux-5.3.18-24.99-default
  CMake version         : 3.22.0
  Fortran compiler      : /mpcdf/soft/SLE_15/packages/x86_64/intel_oneapi/2021.4/mpi/2021.4.0/bin/mpiifort (Intel) version 2021.4.0.20210910
  Fortran compiler flags: -O3 -ip -fp-model precise
  C compiler            : /mpcdf/soft/SLE_15/packages/x86_64/intel/2021.4.0/bin/icc (Intel) version 2021.4.0.20210910
  C compiler flags      : -O3 -ip -fp-model precise
  C++ compiler          : /mpcdf/soft/SLE_15/packages/x86_64/intel/2021.4.0/bin/icpc (Intel) version 2021.4.0.20210910
  C++ compiler flags    : -O3 -ip -fp-model precise
  Using MPI
  Using ScaLAPACK
  Using LibXC
  Using i-PI
  Using RLSY
  Linking against: /mpcdf/soft/SLE_15/packages/x86_64/intel_oneapi/2021.4/mkl/latest/lib/intel64/libmkl_intel_lp64.so
                   /mpcdf/soft/SLE_15/packages/x86_64/intel_oneapi/2021.4/mkl/latest/lib/intel64/libmkl_sequential.so
                   /mpcdf/soft/SLE_15/packages/x86_64/intel_oneapi/2021.4/mkl/latest/lib/intel64/libmkl_core.so
                   /mpcdf/soft/SLE_15/packages/x86_64/intel_oneapi/2021.4/mkl/latest/lib/intel64/libmkl_blacs_intelmpi_lp64.so
                   /mpcdf/soft/SLE_15/packages/x86_64/intel_oneapi/2021.4/mkl/latest/lib/intel64/libmkl_scalapack_lp64.so

  Using      216 parallel tasks.
  Task        0 on host ravg1166 reporting.
  Task        1 on host ravg1166 reporting.
  Task        2 on host ravg1166 reporting.
  Task        3 on host ravg1166 reporting.
  Task        4 on host ravg1166 reporting.
  Task        5 on host ravg1166 reporting.
  Task        6 on host ravg1166 reporting.
  Task        7 on host ravg1166 reporting.
  Task        8 on host ravg1166 reporting.
  Task        9 on host ravg1166 reporting.
  Task       10 on host ravg1166 reporting.
  Task       11 on host ravg1166 reporting.
  Task       12 on host ravg1166 reporting.
  Task       13 on host ravg1166 reporting.
  Task       14 on host ravg1166 reporting.
  Task       15 on host ravg1166 reporting.
  Task       16 on host ravg1166 reporting.
  Task       17 on host ravg1166 reporting.
  Task       18 on host ravg1166 reporting.
  Task       19 on host ravg1166 reporting.
  Task       20 on host ravg1166 reporting.
  Task       21 on host ravg1166 reporting.
  Task       22 on host ravg1166 reporting.
  Task       23 on host ravg1166 reporting.
  Task       24 on host ravg1166 reporting.
  Task       25 on host ravg1166 reporting.
  Task       26 on host ravg1166 reporting.
  Task       27 on host ravg1166 reporting.
  Task       28 on host ravg1166 reporting.
  Task       29 on host ravg1166 reporting.
  Task       30 on host ravg1166 reporting.
  Task       31 on host ravg1166 reporting.
  Task       32 on host ravg1166 reporting.
  Task       33 on host ravg1166 reporting.
  Task       34 on host ravg1166 reporting.
  Task       35 on host ravg1166 reporting.
  Task       36 on host ravg1166 reporting.
  Task       37 on host ravg1166 reporting.
  Task       38 on host ravg1166 reporting.
  Task       39 on host ravg1166 reporting.
  Task       40 on host ravg1166 reporting.
  Task       41 on host ravg1166 reporting.
  Task       42 on host ravg1166 reporting.
  Task       43 on host ravg1166 reporting.
  Task       44 on host ravg1166 reporting.
  Task       45 on host ravg1166 reporting.
  Task       46 on host ravg1166 reporting.
  Task       47 on host ravg1166 reporting.
  Task       48 on host ravg1166 reporting.
  Task       49 on host ravg1166 reporting.
  Task       50 on host ravg1166 reporting.
  Task       51 on host ravg1166 reporting.
  Task       52 on host ravg1166 reporting.
  Task       53 on host ravg1166 reporting.
  Task       54 on host ravg1166 reporting.
  Task       55 on host ravg1166 reporting.
  Task       56 on host ravg1166 reporting.
  Task       57 on host ravg1166 reporting.
  Task       58 on host ravg1166 reporting.
  Task       59 on host ravg1166 reporting.
  Task       60 on host ravg1166 reporting.
  Task       61 on host ravg1166 reporting.
  Task       62 on host ravg1166 reporting.
  Task       63 on host ravg1166 reporting.
  Task       64 on host ravg1166 reporting.
  Task       65 on host ravg1166 reporting.
  Task       66 on host ravg1166 reporting.
  Task       67 on host ravg1166 reporting.
  Task       68 on host ravg1166 reporting.
  Task       69 on host ravg1166 reporting.
  Task       70 on host ravg1166 reporting.
  Task       71 on host ravg1166 reporting.
  Task       72 on host ravg1168 reporting.
  Task       73 on host ravg1168 reporting.
  Task       74 on host ravg1168 reporting.
  Task       75 on host ravg1168 reporting.
  Task       76 on host ravg1168 reporting.
  Task       77 on host ravg1168 reporting.
  Task       78 on host ravg1168 reporting.
  Task       79 on host ravg1168 reporting.
  Task       80 on host ravg1168 reporting.
  Task       81 on host ravg1168 reporting.
  Task       82 on host ravg1168 reporting.
  Task       83 on host ravg1168 reporting.
  Task       84 on host ravg1168 reporting.
  Task       85 on host ravg1168 reporting.
  Task       86 on host ravg1168 reporting.
  Task       87 on host ravg1168 reporting.
  Task       88 on host ravg1168 reporting.
  Task       89 on host ravg1168 reporting.
  Task       90 on host ravg1168 reporting.
  Task       91 on host ravg1168 reporting.
  Task       92 on host ravg1168 reporting.
  Task       93 on host ravg1168 reporting.
  Task       94 on host ravg1168 reporting.
  Task       95 on host ravg1168 reporting.
  Task       96 on host ravg1168 reporting.
  Task       97 on host ravg1168 reporting.
  Task       98 on host ravg1168 reporting.
  Task       99 on host ravg1168 reporting.
  Task      100 on host ravg1168 reporting.
  Task      101 on host ravg1168 reporting.
  Task      102 on host ravg1168 reporting.
  Task      103 on host ravg1168 reporting.
  Task      104 on host ravg1168 reporting.
  Task      105 on host ravg1168 reporting.
  Task      106 on host ravg1168 reporting.
  Task      107 on host ravg1168 reporting.
  Task      108 on host ravg1168 reporting.
  Task      109 on host ravg1168 reporting.
  Task      110 on host ravg1168 reporting.
  Task      111 on host ravg1168 reporting.
  Task      112 on host ravg1168 reporting.
  Task      113 on host ravg1168 reporting.
  Task      114 on host ravg1168 reporting.
  Task      115 on host ravg1168 reporting.
  Task      116 on host ravg1168 reporting.
  Task      117 on host ravg1168 reporting.
  Task      118 on host ravg1168 reporting.
  Task      119 on host ravg1168 reporting.
  Task      120 on host ravg1168 reporting.
  Task      121 on host ravg1168 reporting.
  Task      122 on host ravg1168 reporting.
  Task      123 on host ravg1168 reporting.
  Task      124 on host ravg1168 reporting.
  Task      125 on host ravg1168 reporting.
  Task      126 on host ravg1168 reporting.
  Task      127 on host ravg1168 reporting.
  Task      128 on host ravg1168 reporting.
  Task      129 on host ravg1168 reporting.
  Task      130 on host ravg1168 reporting.
  Task      131 on host ravg1168 reporting.
  Task      132 on host ravg1168 reporting.
  Task      133 on host ravg1168 reporting.
  Task      134 on host ravg1168 reporting.
  Task      135 on host ravg1168 reporting.
  Task      136 on host ravg1168 reporting.
  Task      137 on host ravg1168 reporting.
  Task      138 on host ravg1168 reporting.
  Task      139 on host ravg1168 reporting.
  Task      140 on host ravg1168 reporting.
  Task      141 on host ravg1168 reporting.
  Task      142 on host ravg1168 reporting.
  Task      143 on host ravg1168 reporting.
  Task      144 on host ravg1169 reporting.
  Task      145 on host ravg1169 reporting.
  Task      146 on host ravg1169 reporting.
  Task      147 on host ravg1169 reporting.
  Task      148 on host ravg1169 reporting.
  Task      149 on host ravg1169 reporting.
  Task      150 on host ravg1169 reporting.
  Task      151 on host ravg1169 reporting.
  Task      152 on host ravg1169 reporting.
  Task      153 on host ravg1169 reporting.
  Task      154 on host ravg1169 reporting.
  Task      155 on host ravg1169 reporting.
  Task      156 on host ravg1169 reporting.
  Task      157 on host ravg1169 reporting.
  Task      158 on host ravg1169 reporting.
  Task      159 on host ravg1169 reporting.
  Task      160 on host ravg1169 reporting.
  Task      161 on host ravg1169 reporting.
  Task      162 on host ravg1169 reporting.
  Task      163 on host ravg1169 reporting.
  Task      164 on host ravg1169 reporting.
  Task      165 on host ravg1169 reporting.
  Task      166 on host ravg1169 reporting.
  Task      167 on host ravg1169 reporting.
  Task      168 on host ravg1169 reporting.
  Task      169 on host ravg1169 reporting.
  Task      170 on host ravg1169 reporting.
  Task      171 on host ravg1169 reporting.
  Task      172 on host ravg1169 reporting.
  Task      173 on host ravg1169 reporting.
  Task      174 on host ravg1169 reporting.
  Task      175 on host ravg1169 reporting.
  Task      176 on host ravg1169 reporting.
  Task      177 on host ravg1169 reporting.
  Task      178 on host ravg1169 reporting.
  Task      179 on host ravg1169 reporting.
  Task      180 on host ravg1169 reporting.
  Task      181 on host ravg1169 reporting.
  Task      182 on host ravg1169 reporting.
  Task      183 on host ravg1169 reporting.
  Task      184 on host ravg1169 reporting.
  Task      185 on host ravg1169 reporting.
  Task      186 on host ravg1169 reporting.
  Task      187 on host ravg1169 reporting.
  Task      188 on host ravg1169 reporting.
  Task      189 on host ravg1169 reporting.
  Task      190 on host ravg1169 reporting.
  Task      191 on host ravg1169 reporting.
  Task      192 on host ravg1169 reporting.
  Task      193 on host ravg1169 reporting.
  Task      194 on host ravg1169 reporting.
  Task      195 on host ravg1169 reporting.
  Task      196 on host ravg1169 reporting.
  Task      197 on host ravg1169 reporting.
  Task      198 on host ravg1169 reporting.
  Task      199 on host ravg1169 reporting.
  Task      200 on host ravg1169 reporting.
  Task      201 on host ravg1169 reporting.
  Task      202 on host ravg1169 reporting.
  Task      203 on host ravg1169 reporting.
  Task      204 on host ravg1169 reporting.
  Task      205 on host ravg1169 reporting.
  Task      206 on host ravg1169 reporting.
  Task      207 on host ravg1169 reporting.
  Task      208 on host ravg1169 reporting.
  Task      209 on host ravg1169 reporting.
  Task      210 on host ravg1169 reporting.
  Task      211 on host ravg1169 reporting.
  Task      212 on host ravg1169 reporting.
  Task      213 on host ravg1169 reporting.
  Task      214 on host ravg1169 reporting.
  Task      215 on host ravg1169 reporting.

  Performing system and environment tests:
  | Environment variable OMP_NUM_THREADS correctly set to 1.
  | Checking for ScaLAPACK...
  | Testing pdtran()...
  | All pdtran() tests passed.

  Obtaining array dimensions for all initial allocations:
  
  -----------------------------------------------------------------------
  Parsing control.in (first pass over file, find array dimensions only).
  The contents of control.in will be repeated verbatim below
  unless switched off by setting 'verbatim_writeout .false.' .
  in the first line of control.in .
  -----------------------------------------------------------------------
  
  xc                 hse06  0.11
  hse_unit b
  spin               collinear
  default_initial_moment 1
  charge      0.0
  relativistic       atomic_zora scalar
  #elsi_restart read
  # SCF settings
  relax_geometry bfgs 1E-3
  #relax_unit_cell fixed_angles
  use_symmetric_forces .true.
  occupation_type gaussian       0.1
  # k-grid settings  (to be adjusted)
  k_grid  4 4 1
  #empty_states 8
  use_dipole_correction
  include_spin_orbit non_self_consistent
  # sc_accuracy_rho    1E-4
  #    sc_accuracy_eev    1E-3
  #    sc_accuracy_etot   1E-4
  #    sc_accuracy_forces 1E-2
  many_body_dispersion_nl    beta=0.83
  ################################################################################
  #
  #  FHI-aims code project
  #  Volker Blum, 2018
  #
  #  Suggested "intermediate" defaults for Se atom (to be pasted into control.in file)
  #
  #  2020/09/15 These "intermediate" settings are identical to past "tight" defaults
  #             and differ only in the "g" function that is now included in "tight".
  #
  ################################################################################
    species        Se
  #     global species definitions
      nucleus             34
      mass                78.96
  #
      l_hartree           6
  #
      cut_pot             4.0          2.0  1.0
      basis_dep_cutoff    1e-4
  #
      radial_base         55 7.0
      radial_multiplier   2
      angular_grids       specified
        division   0.0830  110
        division   0.1357  194
        division   0.7377  302
        division   0.8610  434
  #      division   0.9640  590
  #      division   1.0773  770
  #      division   2.5539  974
  #      outer_grid  974
        outer_grid  434
  ################################################################################
  #
  #  Definition of "minimal" basis
  #
  ################################################################################
  #     valence basis states
      valence      4  s   2.
      valence      4  p   4.
      valence      3  d  10.
  #     ion occupancy
      ion_occ      4  s   1.
      ion_occ      4  p   3.
      ion_occ      3  d  10.
  ################################################################################
  #
  #  Suggested additional basis functions. For production calculations,
  #  uncomment them one after another (the most important basis functions are
  #  listed first).
  #
  #  Constructed for dimers: 1.85 A, 2.15 A, 2.50 A, 3.00 A, 4.00 A
  #
  ################################################################################
  #  "First tier" - improvements: -336.21 meV to -36.85 meV
       hydro 3 d 4.3
       hydro 2 p 1.6
       hydro 4 f 7.2
       ionic 4 s auto
  #  "Second tier" - improvements: -14.39 meV to -1.49 meV
  #     hydro 5 g 10.4
  #     hydro 4 p 4.5
  #     hydro 4 d 6.2
  #     hydro 4 f 11.2
  #     hydro 1 s 0.65
  #     hydro 6 h 15.2
  #  "Third tier" - improvements: -0.46 meV and below
  #     hydro 5 g 14.4
  #     ionic 4 d auto
  #     hydro 4 f 22.4
  #     hydro 5 f 7.4
  #     hydro 5 p 8
  #     hydro 5 s 9.4
  #  "Fourth tier" - improvements: -0.12 meV and below
  #     hydro 5 d 11.6
  #     hydro 6 h 18
  #     hydro 4 p 4
  #     hydro 5 f 16
  #     hydro 4 s 3.9
  
  
  ################################################################################
  #
  #  FHI-aims code project
  #  Volker Blum, 2018
  #
  #  Suggested "intermediate" defaults for S atom (to be pasted into control.in file)
  #
  ################################################################################
    species        S
  #     global species definitions
      nucleus             16
      mass                32.065
  #
      l_hartree           6
  #
      cut_pot             4.0          2.0  1.0
      basis_dep_cutoff    1e-4
  #
      radial_base         44 7.0
      radial_multiplier   2
      angular_grids       specified
        division   0.4665  110
        division   0.5810  194
        division   0.7139  302
        division   0.8274  434
  #      division   0.9105  590
  #      division   1.0975  770
  #      division   1.2028  974
  #      outer_grid  974
        outer_grid  434
  ################################################################################
  #
  #  Definition of "minimal" basis
  #
  ################################################################################
  #     valence basis states
      valence      3  s   2.
      valence      3  p   4.
  #     ion occupancy
      ion_occ      3  s   1.
      ion_occ      3  p   3.
  ################################################################################
  #
  #  Suggested additional basis functions. For production calculations,
  #  uncomment them one after another (the most important basis functions are
  #  listed first).
  #
  #  Constructed for dimers: 1.6 A, 1.9 A, 2.5 A, 3.25 A, 4.0 A
  #
  ################################################################################
  #  "First tier" - improvements: -652.81 meV to -45.53 meV
       ionic 3 d auto
       hydro 2 p 1.8
       hydro 4 f 7
       ionic 3 s auto
  #  "Second tier" - improvements: -30.20 meV to -1.74 meV
  #     hydro 4 d 6.2
  for_aux     hydro 5 g 10.8
  #     hydro 4 p 4.9
  #     hydro 5 f 10
  #     hydro 1 s 0.8
  #  "Third tier" - improvements: -1.04 meV to -0.20 meV
  #     hydro 3 d 3.9
  #     hydro 3 d 2.7
  #     hydro 5 g 12
  #     hydro 4 p 10.4
  #     hydro 5 f 12.4
  #     hydro 2 s 1.9
  #  "Fourth tier" - improvements: -0.35 meV to -0.06 meV
  #     hydro 4 d 10.4
  #     hydro 4 p 7.2
  #     hydro 4 d 10
  #     hydro 5 g 19.2
  #     hydro 4 s 12
  
  ################################################################################
  #
  #  FHI-aims code project
  # Volker Blum, Fritz Haber Institute Berlin, 2009
  #
  #  Suggested "intermediate" defaults for Mo atom (to be pasted into control.in file)
  #
  #  See https://aaltodoc.aalto.fi/handle/123456789/33620 for the report these
  #  setting are based on
  ################################################################################
    species        Mo
  #     global species definitions
      nucleus             42
      mass                95.94
  #
      l_hartree           6
  #
      cut_pot             4.0  2.0  1.0
      basis_dep_cutoff    1e-4
  #
      radial_base         59 7.0
      radial_multiplier   2
      angular_grids specified
        division   0.3117   50
        division   0.6750  110
        division   1.0351  194
        division   1.2073  302
        division   1.6402  434
  #      division   1.9185  590
  #      division   2.0237  770
  #      division   2.0980  974
  #      division   2.7972 1202
  #      outer_grid  974
        outer_grid  434
  ################################################################################
  #
  #  Definition of "minimal" basis
  #
  ################################################################################
  #     valence basis states
      valence      5  s   1.
      valence      4  p   6.
      valence      4  d   5.
  #     ion occupancy
      ion_occ     5  s   0.
      ion_occ     4  p   6.
      ion_occ     4  d   4.
  ################################################################################
  #
  #  Suggested additional basis functions. For production calculations,
  #  uncomment them one after another (the most important basis functions are
  #  listed first).
  #
  #  Constructed for dimers: 1.675 A, 1.9 A, 2.375 A, 3.00 A, 4.00 A
  #
  ################################################################################
  #  "First tier"  - max. impr. -711.23  meV, min. impr. -21.07 meV
       hydro 4 f 8.4
       hydro 3 d 2.8
       ionic 5 p auto
       for_aux hydro 5 g 12
       ionic 5 s auto
  #  "Second tier" - max. impr. -39.38  meV, min. impr. -2.68 meV
  #     hydro 4 f 12.4
  #     hydro 3 d 3.3
  #     hydro 6 h 17.2
  #     hydro 4 f 7.6
  #     hydro 3 p 3.0
  #     hydro 1 s 0.65
  #  "Third tier"  - max. impr. -5.50 meV, min. impr. -0.47 meV
  #     hydro 4 f 29.2
  #     hydro 5 g 11.2
  #     hydro 3 d 6.8
  #     hydro 6 h 14.8
  #     hydro 2 p 2.3
  #     hydro 4 s 3.8
  #  "Fourth tier"  - max. impr. -0.58 meV, min. impr. -0.19 meV
  #     hydro 5 f 6.8
  #     hydro 5 d 14.8
  #     hydro 6 s 7.8
  #     hydro 5 g 20.8
  #     hydro 5 d 10.4
  #     hydro 5 p 9.8
  #  Further functions - -0.17 meV and below
  #     hydro 5 d 3.2
  ################################################################################
  #
  #  FHI-aims code project
  #  Volker Blum, Maria Dragoumi, Sebastian Kokott 2020
  #
  #  Suggested "intermediate" defaults for W atom (to be pasted into control.in file)
  #
  ################################################################################
    species          W
  #     global species definitions
      nucleus        74
      mass           183.84
  #
      l_hartree      6
  #
      cut_pot        4.0  2.0  1.0
      basis_dep_cutoff    1e-4
  #
      radial_base    71  7.0
      radial_multiplier  2
      angular_grids specified
        division   0.2901   50
        division   0.6986  110
        division   1.0528  194
        division   1.2659  302
        division   1.5223  434
  #      division   1.8111  590
  #      division   2.0105  770
  #      division   2.0413  974
  #      division   2.8804 1202
  #      outer_grid  974
        outer_grid  434
  ################################################################################
  #
  #  Definition of "minimal" basis
  #
  ################################################################################
  #     valence basis states
      valence      6  s   2.
      valence      5  p   6.
      valence      5  d   4.
      valence      4  f  14.
  #     ion occupancy
      ion_occ      6  s   1.
      ion_occ      5  p   6.
      ion_occ      5  d   3.
      ion_occ      4  f  14.
  ################################################################################
  #
  #  Suggested additional basis functions. For production calculations,
  #  uncomment them one after another (the most important basis functions are
  #  listed first).
  #
  #  Constructed for dimers: 1.775, 1.99, 2.50, 3.25, 4.50 AA
  #
  ################################################################################
  #
  #  "First tier" - improvements: -603.77 meV to -28.99 meV
       hydro 4 f 7.8
       hydro 4 d 5.8
       ionic 6 p auto
    for_aux   hydro 5 g 12.4
       ionic 6 s auto
  #  "Second tier" - improvements: -28.30 meV to -1.31 meV
  #     hydro 6 h 16.8
  #     ionic 5 d auto
  #     hydro 4 f 8.6
  #     hydro 5 g 16.8
  #     hydro 5 d 8.4
  #     hydro 3 p 3.3
  #     hydro 1 s 0.55
  #  "Third tier" - max. impr. -1.79 meV, min. impr. -0.26 meV
  #     hydro 5 f 10.8
  #     hydro 5 g 34.4
  #     hydro 6 h 20.8
  #     hydro 5 g 12.8
  #     hydro 2 p 1.6
  #     hydro 4 s 4.7
  #     hydro 6 d 18.4
  #  "Fourth tier" -0.46 max. impr. - meV, min. impr. -0.09 meV
  #     hydro 6 h 21.6
  #     hydro 5 f 22.4
  #     hydro 4 f 4
  #     hydro 5 p 9.6
  #     hydro 6 d 17.2
  #     hydro 3 p 5.2
  #     hydro 5 g 4.7
  #     hydro 6 s 7.6
  
  -----------------------------------------------------------------------
  Completed first pass over input file control.in .
  -----------------------------------------------------------------------
  
  
  -----------------------------------------------------------------------
  Parsing geometry.in (first pass over file, find array dimensions only).
  The contents of geometry.in will be repeated verbatim below
  unless switched off by setting 'verbatim_writeout .false.' .
  in the first line of geometry.in .
  -----------------------------------------------------------------------
  
  #
  # This is the geometry file that corresponds to the current relaxation step.
  # If you do not want this file to be written, set the "write_restart_geometry" flag to .false.
  #  aims_uuid : 4539E001-6EAC-4DB2-A450-008F5045F82D
  #
    set_vacuum_level         0.651789
  lattice_vector     16.31232095      0.00000000      0.00000000
  lattice_vector     -8.15665875     14.12581815      0.00000000
  lattice_vector      0.00000000      0.00000000    103.32585319
  atom      -0.00079498      0.94034503     51.61828904 Mo
  atom       1.63126707      1.88254315     53.27869266 Se
  atom       1.63166632      1.88277255     49.95828285 Se
  atom      -1.63130326      3.76516016     51.62039723 Mo
  atom      -0.00165874      4.70646435     53.28454006 Se
  atom      -0.00398248      4.71000212     49.95741343 Se
  atom      -3.26120319      6.59001283     51.62315832 Mo
  atom      -1.63144996      7.53238110     53.28737757 Se
  atom      -1.63141964      7.53427759     49.96129096 Se
  atom      -4.89425981      9.41814149     51.62314679 Mo
  atom      -3.26319381     10.35823431     53.28736308 Se
  atom      -3.26152328     10.35731101     49.96129302 Se
  atom      -6.52603588     12.24191852     51.62038060 Mo
  atom      -4.89594632     13.18241542     53.28454102 Se
  atom      -4.89403474     13.17863306     49.95739547 Se
  atom       3.26631031      0.93596893     51.61786862 Mo
  atom       4.88772756      1.88172078     53.28548211 Se
  atom       4.88957296      1.86791703     49.94284417 Se
  atom       1.62889391      3.77172699     51.61787238 Mo
  atom       3.25868375      4.70292441     53.28550622 Se
  atom       3.24764436      4.71141576     49.94282401 Se
  atom      -0.00163579      6.59004334     51.62319610 Mo
  atom       1.63663848      7.52964686     53.28183379 Se
  atom       1.63082632      7.53296389     49.96292243 Se
  atom      -1.63151281      9.41632216     51.62506771 Mo
  atom       0.00012503     10.35824930     53.28737727 Se
  atom      -0.00153442     10.35729329     49.96127702 Se
  atom      -3.26453506     12.24078960     51.62319570 Mo
  atom      -1.63160823     13.18960484     53.28185284 Se
  atom      -1.63163115     13.18290704     49.96291633 Se
  atom       6.52494466      0.94971499     51.61806978 Mo
  atom       8.16219438      1.88172722     53.28541884 Se
  atom       8.16027481      1.86788585     49.94279964 Se
  atom       4.85328975      3.74274480     51.60587855 Mo
  atom       6.52489205      4.70768249     53.18547747 Se
  atom       6.52522183      4.70812090     55.42034163 Se
  atom       6.52481599      4.70760358     49.98053382 Se
  atom       3.27003234      6.58668393     51.61806607 Mo
  atom       4.89585622      7.53845078     53.28540025 Se
  atom       4.88287876      7.54370252     49.94275718 Se
  atom       1.63120781      9.41815248     51.62316741 Mo
  atom       3.26248447     10.35996774     53.28447638 Se
  atom       3.25818243     10.36023043     49.95732797 Se
  atom       0.00133577     12.24075736     51.62317559 Mo
  atom       1.63269010     13.18245215     53.28449864 Se
  atom       1.63076224     13.17861765     49.95734432 Se
  atom       9.78360849      0.93595191     51.61778792 Mo
  atom      11.41858495      1.88256007     53.27860599 Se
  atom      11.41820784      1.88276514     49.95819822 Se
  atom       8.19640938      3.74273828     51.60579840 Mo
  atom       9.79099992      4.70290107     53.28541710 Se
  atom       9.80202231      4.71140555     49.94274236 Se
  atom       6.52475148      6.63762947     51.60576269 Mo
  atom       8.15364095      7.53843842     53.28536719 Se
  atom       8.16655137      7.54371891     49.94273299 Se
  atom       4.88731553      9.41543511     51.61775954 Mo
  atom       6.52464409     10.35795173     53.27858858 Se
  atom       6.52462547     10.35753111     49.95816049 Se
  atom       3.26279915     12.24189652     51.62035132 Mo
  atom       4.89445361     13.18382327     53.28197019 Se
  atom       4.89301929     13.18301027     49.95597482 Se
  atom      13.05069309      0.94034930     51.61824866 Mo
  atom      14.68107795      1.88121256     53.28201753 Se
  atom      14.68110962      1.88286858     49.95601366 Se
  atom      11.42084527      3.77175675     51.61777537 Mo
  atom      13.05130234      4.70646087     53.28450298 Se
  atom      13.05369888      4.71000551     49.95735706 Se
  atom       9.77948826      6.58667870     51.61799391 Mo
  atom      11.41283422      7.52963375     53.28178483 Se
  atom      11.41866920      7.53298974     49.96287175 Se
  atom       8.16201702      9.41543805     51.61774296 Mo
  atom       9.78679244     10.35996220     53.28448411 Se
  atom       9.79108231     10.36026365     49.95732576 Se
  atom       6.52455331     12.24241575     51.61823076 Mo
  atom       8.15460975     13.18381674     53.28200392 Se
  atom       8.15605762     13.18302290     49.95598853 Se
  #
  # What follows is the current estimated Hessian matrix constructed by the BFGS algorithm.
  # This is NOT the true Hessian matrix of the system.
  # If you do not want this information here, switch it off using the "hessian_to_restart_geometry" keyword.
  #
  
  -----------------------------------------------------------------------
  Completed first pass over input file geometry.in .
  -----------------------------------------------------------------------
  

  Basic array size parameters:
  | Number of species                 :        4
  | Number of atoms                   :       76
  | Number of lattice vectors         :        3
  | Max. basis fn. angular momentum   :        4
  | Max. atomic/ionic basis occupied n:        6
  | Max. number of basis fn. types    :        3
  | Max. radial fns per species/type  :       14
  | Max. logarithmic grid size        :     1483
  | Max. radial integration grid size :      143
  | Max. angular integration grid size:      434
  | Max. angular grid division number :        8
  | Radial grid for Hartree potential :     1483
  | Number of spin channels           :        2

------------------------------------------------------------
          Reading file control.in.
------------------------------------------------------------

  XC: Using HSE-functional with OMEGA =  0.110000E+00 <units>.
  XC: For the actual units (bohr^-1 or Angstrom^-1), see below.
  hse_unit: Unit for the HSE06 hybrid functional screening parameter set to bohr^(-1).
  Spin treatment: Spin density functional theory - collinear spins.
  Initial spin moment per atom:   1.0000
  Charge =   0.000000E+00: Neutral system requested explicitly.
  Scalar relativistic treatment of kinetic energy: on-site free-atom approximation to ZORA.
  Geometry relaxation: Modified BFGS - TRM (trust radius method) for lattice optimization.
  Convergence accuracy for geometry relaxation: Maximum force <   0.100000E-02 eV/A.
  Occupation type: Gaussian broadening, width =   0.100000E+00 eV.
  Found k-point grid:         4         4         1
  Using dipole correction.
  Calculating non-self-consistent second-variational spin-orbit coupling after scf-cycle
  You have request a SOC run with spin-polarization.
  symmetry_reduced_k_grid will be turned off.
  Using libMBD for calculating MBD and TS energies
 
  Reading configuration options for species Se                  .
  | Found nuclear charge :  34.0000
  | Found atomic mass :    78.9600000000000      amu
  | Found l_max for Hartree potential  :   6
  | Found cutoff potl. onset [A], width [A], scale factor :    4.00000    2.00000    1.00000
  | Threshold for basis-dependent cutoff potential is   0.100000E-03
  | Found data for basic radial integration grid :    55 points, outermost radius =    7.000 A
  | Found multiplier for basic radial grid :   2
  | Found angular grid specification: user-specified.
  | Specified grid contains     5 separate shells.
  | Check grid settings after all constraints further below.
  | Found free-atom valence shell :  4 s   2.000
  | Found free-atom valence shell :  4 p   4.000
  | Found free-atom valence shell :  3 d  10.000
  | Found free-ion valence shell :  4 s   1.000
  | Found free-ion valence shell :  4 p   3.000
  | Found free-ion valence shell :  3 d  10.000
  | Found hydrogenic basis function :  3 d   4.300
  | Found hydrogenic basis function :  2 p   1.600
  | Found hydrogenic basis function :  4 f   7.200
  | Found ionic basis function :  4 s , default cutoff radius.
  Species Se                  : Missing cutoff potential type.
  Defaulting to exp(1/x)/(1-x)^2 type cutoff potential.
  Species Se: No 'logarithmic' tag. Using default grid for free atom:
  | Default logarithmic grid data [bohr] : 0.1000E-03 0.1000E+03 0.1012E+01
  | Will include ionic basis functions of  2.0-fold positive Se                   ion.
  Species Se: On-site basis accuracy parameter (for Gram-Schmidt orthonormalisation) not specified.
  Using default value basis_acc =  0.1000000E-03.
  Species Se                  : Using default innermost maximum threshold i_radial=  2 for radial functions.
  Species Se                  : Default cutoff onset for free atom density etc. : 0.40000000E+01 AA.
  Species Se                  : Basic radial grid will be enhanced according to radial_multiplier =   2, to contain   111 grid points.
 
  Reading configuration options for species S                   .
  | Found nuclear charge :  16.0000
  | Found atomic mass :    32.0650000000000      amu
  | Found l_max for Hartree potential  :   6
  | Found cutoff potl. onset [A], width [A], scale factor :    4.00000    2.00000    1.00000
  | Threshold for basis-dependent cutoff potential is   0.100000E-03
  | Found data for basic radial integration grid :    44 points, outermost radius =    7.000 A
  | Found multiplier for basic radial grid :   2
  | Found angular grid specification: user-specified.
  | Specified grid contains     5 separate shells.
  | Check grid settings after all constraints further below.
  | Found free-atom valence shell :  3 s   2.000
  | Found free-atom valence shell :  3 p   4.000
  | Found free-ion valence shell :  3 s   1.000
  | Found free-ion valence shell :  3 p   3.000
  | Found ionic basis function :  3 d , default cutoff radius.
  | Found hydrogenic basis function :  2 p   1.800
  | Found hydrogenic basis function :  4 f   7.000
  | Found ionic basis function :  3 s , default cutoff radius.
  | Found hydrogenic extended basis function :  5 g  10.800
  Species S                   : Missing cutoff potential type.
  Defaulting to exp(1/x)/(1-x)^2 type cutoff potential.
  Species S : No 'logarithmic' tag. Using default grid for free atom:
  | Default logarithmic grid data [bohr] : 0.1000E-03 0.1000E+03 0.1012E+01
  | Will include ionic basis functions of  2.0-fold positive S                    ion.
  Species S : On-site basis accuracy parameter (for Gram-Schmidt orthonormalisation) not specified.
  Using default value basis_acc =  0.1000000E-03.
  Species S                   : Using default innermost maximum threshold i_radial=  2 for radial functions.
  Species S                   : Default cutoff onset for free atom density etc. : 0.40000000E+01 AA.
  Species S                   : Basic radial grid will be enhanced according to radial_multiplier =   2, to contain    89 grid points.
 
  Reading configuration options for species Mo                  .
  | Found nuclear charge :  42.0000
  | Found atomic mass :    95.9400000000000      amu
  | Found l_max for Hartree potential  :   6
  | Found cutoff potl. onset [A], width [A], scale factor :    4.00000    2.00000    1.00000
  | Threshold for basis-dependent cutoff potential is   0.100000E-03
  | Found data for basic radial integration grid :    59 points, outermost radius =    7.000 A
  | Found multiplier for basic radial grid :   2
  | Found angular grid specification: user-specified.
  | Specified grid contains     6 separate shells.
  | Check grid settings after all constraints further below.
  | Found free-atom valence shell :  5 s   1.000
  | Found free-atom valence shell :  4 p   6.000
  | Found free-atom valence shell :  4 d   5.000
  | Found free-ion valence shell :  5 s   0.000
  | Found free-ion valence shell :  4 p   6.000
  | Found free-ion valence shell :  4 d   4.000
  | Found hydrogenic basis function :  4 f   8.400
  | Found hydrogenic basis function :  3 d   2.800
  | Found ionic basis function :  5 p , default cutoff radius.
  | Found hydrogenic extended basis function :  5 g  12.000
  | Found ionic basis function :  5 s , default cutoff radius.
  Species Mo                  : Missing cutoff potential type.
  Defaulting to exp(1/x)/(1-x)^2 type cutoff potential.
  Species Mo: No 'logarithmic' tag. Using default grid for free atom:
  | Default logarithmic grid data [bohr] : 0.1000E-03 0.1000E+03 0.1012E+01
  | Will include ionic basis functions of  2.0-fold positive Mo                   ion.
  Species Mo: On-site basis accuracy parameter (for Gram-Schmidt orthonormalisation) not specified.
  Using default value basis_acc =  0.1000000E-03.
  Species Mo                  : Using default innermost maximum threshold i_radial=  2 for radial functions.
  Species Mo                  : Default cutoff onset for free atom density etc. : 0.40000000E+01 AA.
  Species Mo                  : Basic radial grid will be enhanced according to radial_multiplier =   2, to contain   119 grid points.
 
  Reading configuration options for species W                   .
  | Found nuclear charge :  74.0000
  | Found atomic mass :    183.840000000000      amu
  | Found l_max for Hartree potential  :   6
  | Found cutoff potl. onset [A], width [A], scale factor :    4.00000    2.00000    1.00000
  | Threshold for basis-dependent cutoff potential is   0.100000E-03
  | Found data for basic radial integration grid :    71 points, outermost radius =    7.000 A
  | Found multiplier for basic radial grid :   2
  | Found angular grid specification: user-specified.
  | Specified grid contains     6 separate shells.
  | Check grid settings after all constraints further below.
  | Found free-atom valence shell :  6 s   2.000
  | Found free-atom valence shell :  5 p   6.000
  | Found free-atom valence shell :  5 d   4.000
  | Found free-atom valence shell :  4 f  14.000
  | Found free-ion valence shell :  6 s   1.000
  | Found free-ion valence shell :  5 p   6.000
  | Found free-ion valence shell :  5 d   3.000
  | Found free-ion valence shell :  4 f  14.000
  | Found hydrogenic basis function :  4 f   7.800
  | Found hydrogenic basis function :  4 d   5.800
  | Found ionic basis function :  6 p , default cutoff radius.
  | Found hydrogenic extended basis function :  5 g  12.400
  | Found ionic basis function :  6 s , default cutoff radius.
  Species W                   : Missing cutoff potential type.
  Defaulting to exp(1/x)/(1-x)^2 type cutoff potential.
  Species W : No 'logarithmic' tag. Using default grid for free atom:
  | Default logarithmic grid data [bohr] : 0.1000E-03 0.1000E+03 0.1012E+01
  | Will include ionic basis functions of  2.0-fold positive W                    ion.
  Species W : On-site basis accuracy parameter (for Gram-Schmidt orthonormalisation) not specified.
  Using default value basis_acc =  0.1000000E-03.
  Species W                   : Using default innermost maximum threshold i_radial=  2 for radial functions.
  Species W                   : Default cutoff onset for free atom density etc. : 0.40000000E+01 AA.
  Species W                   : Basic radial grid will be enhanced according to radial_multiplier =   2, to contain   143 grid points.
 
  Finished reading input file 'control.in'.
 
------------------------------------------------------------


------------------------------------------------------------
          Reading geometry description geometry.in.
------------------------------------------------------------
  Vacuum level in z-axis :   0.651789E+00
  | The smallest distance between any two atoms is         2.23486423 AA.
  | The first atom of this pair is atom number                     35 .
  | The second atom of this pair is atom number                    36 .
  | Wigner-Seitz cell of the first atom image           0     0     0 .
  | (The Wigner-Seitz cell of the second atom is 0 0 0  by definition.)

  Symmetry information by spglib:
  | Precision set to  0.1E-04
  | Number of Operations  : 1
  | Space group           : 1
  | International         : P1
  | Schoenflies           : C1^1
  Input structure read successfully.
  The structure contains       76 atoms,  and a total of       2784.000 electrons.

  Input geometry:
  | Unit cell:
  |       16.31232095        0.00000000        0.00000000
  |       -8.15665875       14.12581815        0.00000000
  |        0.00000000        0.00000000      103.32585319
  | Atomic structure:
  |       Atom                x [A]            y [A]            z [A]
  |    1: Species Mo           -0.00079498        0.94034503       51.61828904
  |    2: Species Se            1.63126707        1.88254315       53.27869266
  |    3: Species Se            1.63166632        1.88277255       49.95828285
  |    4: Species Mo           -1.63130326        3.76516016       51.62039723
  |    5: Species Se           -0.00165874        4.70646435       53.28454006
  |    6: Species Se           -0.00398248        4.71000212       49.95741343
  |    7: Species Mo           -3.26120319        6.59001283       51.62315832
  |    8: Species Se           -1.63144996        7.53238110       53.28737757
  |    9: Species Se           -1.63141964        7.53427759       49.96129096
  |   10: Species Mo           -4.89425981        9.41814149       51.62314679
  |   11: Species Se           -3.26319381       10.35823431       53.28736308
  |   12: Species Se           -3.26152328       10.35731101       49.96129302
  |   13: Species Mo           -6.52603588       12.24191852       51.62038060
  |   14: Species Se           -4.89594632       13.18241542       53.28454102
  |   15: Species Se           -4.89403474       13.17863306       49.95739547
  |   16: Species Mo            3.26631031        0.93596893       51.61786862
  |   17: Species Se            4.88772756        1.88172078       53.28548211
  |   18: Species Se            4.88957296        1.86791703       49.94284417
  |   19: Species Mo            1.62889391        3.77172699       51.61787238
  |   20: Species Se            3.25868375        4.70292441       53.28550622
  |   21: Species Se            3.24764436        4.71141576       49.94282401
  |   22: Species Mo           -0.00163579        6.59004334       51.62319610
  |   23: Species Se            1.63663848        7.52964686       53.28183379
  |   24: Species Se            1.63082632        7.53296389       49.96292243
  |   25: Species Mo           -1.63151281        9.41632216       51.62506771
  |   26: Species Se            0.00012503       10.35824930       53.28737727
  |   27: Species Se           -0.00153442       10.35729329       49.96127702
  |   28: Species Mo           -3.26453506       12.24078960       51.62319570
  |   29: Species Se           -1.63160823       13.18960484       53.28185284
  |   30: Species Se           -1.63163115       13.18290704       49.96291633
  |   31: Species Mo            6.52494466        0.94971499       51.61806978
  |   32: Species Se            8.16219438        1.88172722       53.28541884
  |   33: Species Se            8.16027481        1.86788585       49.94279964
  |   34: Species Mo            4.85328975        3.74274480       51.60587855
  |   35: Species Se            6.52489205        4.70768249       53.18547747
  |   36: Species Se            6.52522183        4.70812090       55.42034163
  |   37: Species Se            6.52481599        4.70760358       49.98053382
  |   38: Species Mo            3.27003234        6.58668393       51.61806607
  |   39: Species Se            4.89585622        7.53845078       53.28540025
  |   40: Species Se            4.88287876        7.54370252       49.94275718
  |   41: Species Mo            1.63120781        9.41815248       51.62316741
  |   42: Species Se            3.26248447       10.35996774       53.28447638
  |   43: Species Se            3.25818243       10.36023043       49.95732797
  |   44: Species Mo            0.00133577       12.24075736       51.62317559
  |   45: Species Se            1.63269010       13.18245215       53.28449864
  |   46: Species Se            1.63076224       13.17861765       49.95734432
  |   47: Species Mo            9.78360849        0.93595191       51.61778792
  |   48: Species Se           11.41858495        1.88256007       53.27860599
  |   49: Species Se           11.41820784        1.88276514       49.95819822
  |   50: Species Mo            8.19640938        3.74273828       51.60579840
  |   51: Species Se            9.79099992        4.70290107       53.28541710
  |   52: Species Se            9.80202231        4.71140555       49.94274236
  |   53: Species Mo            6.52475148        6.63762947       51.60576269
  |   54: Species Se            8.15364095        7.53843842       53.28536719
  |   55: Species Se            8.16655137        7.54371891       49.94273299
  |   56: Species Mo            4.88731553        9.41543511       51.61775954
  |   57: Species Se            6.52464409       10.35795173       53.27858858
  |   58: Species Se            6.52462547       10.35753111       49.95816049
  |   59: Species Mo            3.26279915       12.24189652       51.62035132
  |   60: Species Se            4.89445361       13.18382327       53.28197019
  |   61: Species Se            4.89301929       13.18301027       49.95597482
  |   62: Species Mo           13.05069309        0.94034930       51.61824866
  |   63: Species Se           14.68107795        1.88121256       53.28201753
  |   64: Species Se           14.68110962        1.88286858       49.95601366
  |   65: Species Mo           11.42084527        3.77175675       51.61777537
  |   66: Species Se           13.05130234        4.70646087       53.28450298
  |   67: Species Se           13.05369888        4.71000551       49.95735706
  |   68: Species Mo            9.77948826        6.58667870       51.61799391
  |   69: Species Se           11.41283422        7.52963375       53.28178483
  |   70: Species Se           11.41866920        7.53298974       49.96287175
  |   71: Species Mo            8.16201702        9.41543805       51.61774296
  |   72: Species Se            9.78679244       10.35996220       53.28448411
  |   73: Species Se            9.79108231       10.36026365       49.95732576
  |   74: Species Mo            6.52455331       12.24241575       51.61823076
  |   75: Species Se            8.15460975       13.18381674       53.28200392
  |   76: Species Se            8.15605762       13.18302290       49.95598853

  Lattice parameters for 3D lattice (in Angstroms) :    16.312321   16.311647  103.325853
  Angle(s) between unit vectors (in degrees)       :    90.000000   90.000000  120.003388


  Quantities derived from the lattice vectors:
  | Reciprocal lattice vector 1:  0.385180  0.222414  0.000000
  | Reciprocal lattice vector 2:  0.000000  0.444802  0.000000
  | Reciprocal lattice vector 3:  0.000000  0.000000  0.060809
  | Unit cell volume                               :   0.238088E+05  A^3

  Fractional coordinates:
                         L1                L2                L3
       atom_frac         0.03323792        0.06656924        0.49956799  Mo
       atom_frac         0.16664105        0.13326967        0.51563758  Se
       atom_frac         0.16667365        0.13328591        0.48350225  Se
       atom_frac         0.03327607        0.26654457        0.49958840  Mo
       atom_frac         0.16649935        0.33318172        0.51569417  Se
       atom_frac         0.16648213        0.33343216        0.48349384  Se
       atom_frac         0.03335283        0.46652256        0.49961512  Mo
       atom_frac         0.16662045        0.53323503        0.51572163  Se
       atom_frac         0.16668944        0.53336929        0.48353137  Se
       atom_frac         0.03335205        0.66673246        0.49961501  Mo
       atom_frac         0.16661960        0.73328385        0.51572149  Se
       atom_frac         0.16668932        0.73321849        0.48353139  Se
       atom_frac         0.03327573        0.86663430        0.49958823  Mo
       atom_frac         0.16649772        0.93321429        0.51569418  Se
       atom_frac         0.16648102        0.93294653        0.48349367  Se
       atom_frac         0.23336753        0.06625945        0.49956392  Mo
       atom_frac         0.36624389        0.13321145        0.51570329  Se
       atom_frac         0.36586839        0.13223425        0.48335284  Se
       atom_frac         0.23336954        0.26700945        0.49956396  Mo
       atom_frac         0.36624397        0.33293112        0.51570352  Se
       atom_frac         0.36586780        0.33353224        0.48335264  Se
       atom_frac         0.23317633        0.46652472        0.49961548  Mo
       atom_frac         0.36686845        0.53304147        0.51566798  Se
       atom_frac         0.36662956        0.53327629        0.48354716  Se
       atom_frac         0.23330499        0.66660367        0.49963360  Mo
       atom_frac         0.36667252        0.73328491        0.51572163  Se
       atom_frac         0.36653695        0.73321723        0.48353123  Se
       atom_frac         0.23317671        0.86655438        0.49961548  Mo
       atom_frac         0.36686709        0.93372325        0.51566816  Se
       atom_frac         0.36662859        0.93324910        0.48354710  Se
       atom_frac         0.43361933        0.06723257        0.49956587  Mo
       atom_frac         0.56697992        0.13321191        0.51570267  Se
       atom_frac         0.56637229        0.13223205        0.48335241  Se
       atom_frac         0.43000991        0.26495774        0.49944788  Mo
       atom_frac         0.56664193        0.33326795        0.51473543  Se
       atom_frac         0.56667766        0.33329899        0.53636471  Se
       atom_frac         0.56663447        0.33326237        0.48371760  Se
       atom_frac         0.43362165        0.46628690        0.49956583  Mo
       atom_frac         0.56698107        0.53366472        0.51570249  Se
       atom_frac         0.56637141        0.53403650        0.48335199  Se
       atom_frac         0.43338550        0.66673324        0.49961521  Mo
       atom_frac         0.56672693        0.73340656        0.51569355  Se
       atom_frac         0.56647250        0.73342516        0.48349301  Se
       atom_frac         0.43338441        0.86655210        0.49961529  Mo
       atom_frac         0.56672633        0.93321689        0.51569377  Se
       atom_frac         0.56647241        0.93294544        0.48349317  Se
       atom_frac         0.63289917        0.06625824        0.49956314  Mo
       atom_frac         0.76663707        0.13327087        0.51563674  Se
       atom_frac         0.76662121        0.13328539        0.48350143  Se
       atom_frac         0.63495412        0.26495727        0.49944711  Mo
       atom_frac         0.76669604        0.33292946        0.51570266  Se
       atom_frac         0.76767280        0.33353152        0.48335185  Se
       atom_frac         0.63495024        0.46989345        0.49944676  Mo
       atom_frac         0.76669377        0.53366384        0.51570217  Se
       atom_frac         0.76767214        0.53403766        0.48335176  Se
       atom_frac         0.63289963        0.66654087        0.49956287  Mo
       atom_frac         0.76663689        0.73326384        0.51563657  Se
       atom_frac         0.76662086        0.73323407        0.48350107  Se
       atom_frac         0.63336338        0.86663274        0.49958795  Mo
       atom_frac         0.76673192        0.93331396        0.51566930  Se
       atom_frac         0.76661521        0.93325641        0.48347992  Se
       atom_frac         0.83333808        0.06656955        0.49956760  Mo
       atom_frac         0.96659114        0.13317548        0.51566976  Se
       atom_frac         0.96665170        0.13329271        0.48348029  Se
       atom_frac         0.83365007        0.26701156        0.49956302  Mo
       atom_frac         0.96668953        0.33318147        0.51569381  Se
       atom_frac         0.96696192        0.33343240        0.48349329  Se
       atom_frac         0.83267295        0.46628653        0.49956514  Mo
       atom_frac         0.96618158        0.53304054        0.51566750  Se
       atom_frac         0.96665808        0.53327812        0.48354667  Se
       atom_frac         0.83364992        0.66654108        0.49956271  Mo
       atom_frac         0.96668870        0.73340617        0.51569363  Se
       atom_frac         0.96696235        0.73342751        0.48349299  Se
       atom_frac         0.83333823        0.86666950        0.49956743  Mo
       atom_frac         0.96659019        0.93331350        0.51566962  Se
       atom_frac         0.96665085        0.93325730        0.48348005  Se

  Initial moments and charges:
  |  Atom   Moment         Charge        Species
  |     1   0.100000E+01   0.000000E+00   Mo
  |     2   0.100000E+01   0.000000E+00   Se
  |     3   0.100000E+01   0.000000E+00   Se
  |     4   0.100000E+01   0.000000E+00   Mo
  |     5   0.100000E+01   0.000000E+00   Se
  |     6   0.100000E+01   0.000000E+00   Se
  |     7   0.100000E+01   0.000000E+00   Mo
  |     8   0.100000E+01   0.000000E+00   Se
  |     9   0.100000E+01   0.000000E+00   Se
  |    10   0.100000E+01   0.000000E+00   Mo
  |    11   0.100000E+01   0.000000E+00   Se
  |    12   0.100000E+01   0.000000E+00   Se
  |    13   0.100000E+01   0.000000E+00   Mo
  |    14   0.100000E+01   0.000000E+00   Se
  |    15   0.100000E+01   0.000000E+00   Se
  |    16   0.100000E+01   0.000000E+00   Mo
  |    17   0.100000E+01   0.000000E+00   Se
  |    18   0.100000E+01   0.000000E+00   Se
  |    19   0.100000E+01   0.000000E+00   Mo
  |    20   0.100000E+01   0.000000E+00   Se
  |    21   0.100000E+01   0.000000E+00   Se
  |    22   0.100000E+01   0.000000E+00   Mo
  |    23   0.100000E+01   0.000000E+00   Se
  |    24   0.100000E+01   0.000000E+00   Se
  |    25   0.100000E+01   0.000000E+00   Mo
  |    26   0.100000E+01   0.000000E+00   Se
  |    27   0.100000E+01   0.000000E+00   Se
  |    28   0.100000E+01   0.000000E+00   Mo
  |    29   0.100000E+01   0.000000E+00   Se
  |    30   0.100000E+01   0.000000E+00   Se
  |    31   0.100000E+01   0.000000E+00   Mo
  |    32   0.100000E+01   0.000000E+00   Se
  |    33   0.100000E+01   0.000000E+00   Se
  |    34   0.100000E+01   0.000000E+00   Mo
  |    35   0.100000E+01   0.000000E+00   Se
  |    36   0.100000E+01   0.000000E+00   Se
  |    37   0.100000E+01   0.000000E+00   Se
  |    38   0.100000E+01   0.000000E+00   Mo
  |    39   0.100000E+01   0.000000E+00   Se
  |    40   0.100000E+01   0.000000E+00   Se
  |    41   0.100000E+01   0.000000E+00   Mo
  |    42   0.100000E+01   0.000000E+00   Se
  |    43   0.100000E+01   0.000000E+00   Se
  |    44   0.100000E+01   0.000000E+00   Mo
  |    45   0.100000E+01   0.000000E+00   Se
  |    46   0.100000E+01   0.000000E+00   Se
  |    47   0.100000E+01   0.000000E+00   Mo
  |    48   0.100000E+01   0.000000E+00   Se
  |    49   0.100000E+01   0.000000E+00   Se
  |    50   0.100000E+01   0.000000E+00   Mo
  |    51   0.100000E+01   0.000000E+00   Se
  |    52   0.100000E+01   0.000000E+00   Se
  |    53   0.100000E+01   0.000000E+00   Mo
  |    54   0.100000E+01   0.000000E+00   Se
  |    55   0.100000E+01   0.000000E+00   Se
  |    56   0.100000E+01   0.000000E+00   Mo
  |    57   0.100000E+01   0.000000E+00   Se
  |    58   0.100000E+01   0.000000E+00   Se
  |    59   0.100000E+01   0.000000E+00   Mo
  |    60   0.100000E+01   0.000000E+00   Se
  |    61   0.100000E+01   0.000000E+00   Se
  |    62   0.100000E+01   0.000000E+00   Mo
  |    63   0.100000E+01   0.000000E+00   Se
  |    64   0.100000E+01   0.000000E+00   Se
  |    65   0.100000E+01   0.000000E+00   Mo
  |    66   0.100000E+01   0.000000E+00   Se
  |    67   0.100000E+01   0.000000E+00   Se
  |    68   0.100000E+01   0.000000E+00   Mo
  |    69   0.100000E+01   0.000000E+00   Se
  |    70   0.100000E+01   0.000000E+00   Se
  |    71   0.100000E+01   0.000000E+00   Mo
  |    72   0.100000E+01   0.000000E+00   Se
  |    73   0.100000E+01   0.000000E+00   Se
  |    74   0.100000E+01   0.000000E+00   Mo
  |    75   0.100000E+01   0.000000E+00   Se
  |    76   0.100000E+01   0.000000E+00   Se

 
  Finished reading input file 'control.in'.
 

------------------------------------------------------------
          Reading geometry description geometry.in.
------------------------------------------------------------
 
  Consistency checks for stacksize environment parameter are next.
 
  | Maximum stacksize for task 0: unlimited
  | Maximum stacksize for task 1: unlimited
  | Maximum stacksize for task 2: unlimited
  | Maximum stacksize for task 3: unlimited
  | Maximum stacksize for task 4: unlimited
  | Maximum stacksize for task 5: unlimited
  | Maximum stacksize for task 6: unlimited
  | Maximum stacksize for task 7: unlimited
  | Maximum stacksize for task 8: unlimited
  | Maximum stacksize for task 9: unlimited
  | Maximum stacksize for task 10: unlimited
  | Maximum stacksize for task 11: unlimited
  | Maximum stacksize for task 12: unlimited
  | Maximum stacksize for task 13: unlimited
  | Maximum stacksize for task 14: unlimited
  | Maximum stacksize for task 15: unlimited
  | Maximum stacksize for task 16: unlimited
  | Maximum stacksize for task 17: unlimited
  | Maximum stacksize for task 18: unlimited
  | Maximum stacksize for task 19: unlimited
  | Maximum stacksize for task 20: unlimited
  | Maximum stacksize for task 21: unlimited
  | Maximum stacksize for task 22: unlimited
  | Maximum stacksize for task 23: unlimited
  | Maximum stacksize for task 24: unlimited
  | Maximum stacksize for task 25: unlimited
  | Maximum stacksize for task 26: unlimited
  | Maximum stacksize for task 27: unlimited
  | Maximum stacksize for task 28: unlimited
  | Maximum stacksize for task 29: unlimited
  | Maximum stacksize for task 30: unlimited
  | Maximum stacksize for task 31: unlimited
  | Maximum stacksize for task 32: unlimited
  | Maximum stacksize for task 33: unlimited
  | Maximum stacksize for task 34: unlimited
  | Maximum stacksize for task 35: unlimited
  | Maximum stacksize for task 36: unlimited
  | Maximum stacksize for task 37: unlimited
  | Maximum stacksize for task 38: unlimited
  | Maximum stacksize for task 39: unlimited
  | Maximum stacksize for task 40: unlimited
  | Maximum stacksize for task 41: unlimited
  | Maximum stacksize for task 42: unlimited
  | Maximum stacksize for task 43: unlimited
  | Maximum stacksize for task 44: unlimited
  | Maximum stacksize for task 45: unlimited
  | Maximum stacksize for task 46: unlimited
  | Maximum stacksize for task 47: unlimited
  | Maximum stacksize for task 48: unlimited
  | Maximum stacksize for task 49: unlimited
  | Maximum stacksize for task 50: unlimited
  | Maximum stacksize for task 51: unlimited
  | Maximum stacksize for task 52: unlimited
  | Maximum stacksize for task 53: unlimited
  | Maximum stacksize for task 54: unlimited
  | Maximum stacksize for task 55: unlimited
  | Maximum stacksize for task 56: unlimited
  | Maximum stacksize for task 57: unlimited
  | Maximum stacksize for task 58: unlimited
  | Maximum stacksize for task 59: unlimited
  | Maximum stacksize for task 60: unlimited
  | Maximum stacksize for task 61: unlimited
  | Maximum stacksize for task 62: unlimited
  | Maximum stacksize for task 63: unlimited
  | Maximum stacksize for task 64: unlimited
  | Maximum stacksize for task 65: unlimited
  | Maximum stacksize for task 66: unlimited
  | Maximum stacksize for task 67: unlimited
  | Maximum stacksize for task 68: unlimited
  | Maximum stacksize for task 69: unlimited
  | Maximum stacksize for task 70: unlimited
  | Maximum stacksize for task 71: unlimited
  | Maximum stacksize for task 72: unlimited
  | Maximum stacksize for task 73: unlimited
  | Maximum stacksize for task 74: unlimited
  | Maximum stacksize for task 75: unlimited
  | Maximum stacksize for task 76: unlimited
  | Maximum stacksize for task 77: unlimited
  | Maximum stacksize for task 78: unlimited
  | Maximum stacksize for task 79: unlimited
  | Maximum stacksize for task 80: unlimited
  | Maximum stacksize for task 81: unlimited
  | Maximum stacksize for task 82: unlimited
  | Maximum stacksize for task 83: unlimited
  | Maximum stacksize for task 84: unlimited
  | Maximum stacksize for task 85: unlimited
  | Maximum stacksize for task 86: unlimited
  | Maximum stacksize for task 87: unlimited
  | Maximum stacksize for task 88: unlimited
  | Maximum stacksize for task 89: unlimited
  | Maximum stacksize for task 90: unlimited
  | Maximum stacksize for task 91: unlimited
  | Maximum stacksize for task 92: unlimited
  | Maximum stacksize for task 93: unlimited
  | Maximum stacksize for task 94: unlimited
  | Maximum stacksize for task 95: unlimited
  | Maximum stacksize for task 96: unlimited
  | Maximum stacksize for task 97: unlimited
  | Maximum stacksize for task 98: unlimited
  | Maximum stacksize for task 99: unlimited
  | Maximum stacksize for task 100: unlimited
  | Maximum stacksize for task 101: unlimited
  | Maximum stacksize for task 102: unlimited
  | Maximum stacksize for task 103: unlimited
  | Maximum stacksize for task 104: unlimited
  | Maximum stacksize for task 105: unlimited
  | Maximum stacksize for task 106: unlimited
  | Maximum stacksize for task 107: unlimited
  | Maximum stacksize for task 108: unlimited
  | Maximum stacksize for task 109: unlimited
  | Maximum stacksize for task 110: unlimited
  | Maximum stacksize for task 111: unlimited
  | Maximum stacksize for task 112: unlimited
  | Maximum stacksize for task 113: unlimited
  | Maximum stacksize for task 114: unlimited
  | Maximum stacksize for task 115: unlimited
  | Maximum stacksize for task 116: unlimited
  | Maximum stacksize for task 117: unlimited
  | Maximum stacksize for task 118: unlimited
  | Maximum stacksize for task 119: unlimited
  | Maximum stacksize for task 120: unlimited
  | Maximum stacksize for task 121: unlimited
  | Maximum stacksize for task 122: unlimited
  | Maximum stacksize for task 123: unlimited
  | Maximum stacksize for task 124: unlimited
  | Maximum stacksize for task 125: unlimited
  | Maximum stacksize for task 126: unlimited
  | Maximum stacksize for task 127: unlimited
  | Maximum stacksize for task 128: unlimited
  | Maximum stacksize for task 129: unlimited
  | Maximum stacksize for task 130: unlimited
  | Maximum stacksize for task 131: unlimited
  | Maximum stacksize for task 132: unlimited
  | Maximum stacksize for task 133: unlimited
  | Maximum stacksize for task 134: unlimited
  | Maximum stacksize for task 135: unlimited
  | Maximum stacksize for task 136: unlimited
  | Maximum stacksize for task 137: unlimited
  | Maximum stacksize for task 138: unlimited
  | Maximum stacksize for task 139: unlimited
  | Maximum stacksize for task 140: unlimited
  | Maximum stacksize for task 141: unlimited
  | Maximum stacksize for task 142: unlimited
  | Maximum stacksize for task 143: unlimited
  | Maximum stacksize for task 144: unlimited
  | Maximum stacksize for task 145: unlimited
  | Maximum stacksize for task 146: unlimited
  | Maximum stacksize for task 147: unlimited
  | Maximum stacksize for task 148: unlimited
  | Maximum stacksize for task 149: unlimited
  | Maximum stacksize for task 150: unlimited
  | Maximum stacksize for task 151: unlimited
  | Maximum stacksize for task 152: unlimited
  | Maximum stacksize for task 153: unlimited
  | Maximum stacksize for task 154: unlimited
  | Maximum stacksize for task 155: unlimited
  | Maximum stacksize for task 156: unlimited
  | Maximum stacksize for task 157: unlimited
  | Maximum stacksize for task 158: unlimited
  | Maximum stacksize for task 159: unlimited
  | Maximum stacksize for task 160: unlimited
  | Maximum stacksize for task 161: unlimited
  | Maximum stacksize for task 162: unlimited
  | Maximum stacksize for task 163: unlimited
  | Maximum stacksize for task 164: unlimited
  | Maximum stacksize for task 165: unlimited
  | Maximum stacksize for task 166: unlimited
  | Maximum stacksize for task 167: unlimited
  | Maximum stacksize for task 168: unlimited
  | Maximum stacksize for task 169: unlimited
  | Maximum stacksize for task 170: unlimited
  | Maximum stacksize for task 171: unlimited
  | Maximum stacksize for task 172: unlimited
  | Maximum stacksize for task 173: unlimited
  | Maximum stacksize for task 174: unlimited
  | Maximum stacksize for task 175: unlimited
  | Maximum stacksize for task 176: unlimited
  | Maximum stacksize for task 177: unlimited
  | Maximum stacksize for task 178: unlimited
  | Maximum stacksize for task 179: unlimited
  | Maximum stacksize for task 180: unlimited
  | Maximum stacksize for task 181: unlimited
  | Maximum stacksize for task 182: unlimited
  | Maximum stacksize for task 183: unlimited
  | Maximum stacksize for task 184: unlimited
  | Maximum stacksize for task 185: unlimited
  | Maximum stacksize for task 186: unlimited
  | Maximum stacksize for task 187: unlimited
  | Maximum stacksize for task 188: unlimited
  | Maximum stacksize for task 189: unlimited
  | Maximum stacksize for task 190: unlimited
  | Maximum stacksize for task 191: unlimited
  | Maximum stacksize for task 192: unlimited
  | Maximum stacksize for task 193: unlimited
  | Maximum stacksize for task 194: unlimited
  | Maximum stacksize for task 195: unlimited
  | Maximum stacksize for task 196: unlimited
  | Maximum stacksize for task 197: unlimited
  | Maximum stacksize for task 198: unlimited
  | Maximum stacksize for task 199: unlimited
  | Maximum stacksize for task 200: unlimited
  | Maximum stacksize for task 201: unlimited
  | Maximum stacksize for task 202: unlimited
  | Maximum stacksize for task 203: unlimited
  | Maximum stacksize for task 204: unlimited
  | Maximum stacksize for task 205: unlimited
  | Maximum stacksize for task 206: unlimited
  | Maximum stacksize for task 207: unlimited
  | Maximum stacksize for task 208: unlimited
  | Maximum stacksize for task 209: unlimited
  | Maximum stacksize for task 210: unlimited
  | Maximum stacksize for task 211: unlimited
  | Maximum stacksize for task 212: unlimited
  | Maximum stacksize for task 213: unlimited
  | Maximum stacksize for task 214: unlimited
  | Maximum stacksize for task 215: unlimited
  | Current stacksize for task 0: unlimited
  | Current stacksize for task 1: unlimited
  | Current stacksize for task 2: unlimited
  | Current stacksize for task 3: unlimited
  | Current stacksize for task 4: unlimited
  | Current stacksize for task 5: unlimited
  | Current stacksize for task 6: unlimited
  | Current stacksize for task 7: unlimited
  | Current stacksize for task 8: unlimited
  | Current stacksize for task 9: unlimited
  | Current stacksize for task 10: unlimited
  | Current stacksize for task 11: unlimited
  | Current stacksize for task 12: unlimited
  | Current stacksize for task 13: unlimited
  | Current stacksize for task 14: unlimited
  | Current stacksize for task 15: unlimited
  | Current stacksize for task 16: unlimited
  | Current stacksize for task 17: unlimited
  | Current stacksize for task 18: unlimited
  | Current stacksize for task 19: unlimited
  | Current stacksize for task 20: unlimited
  | Current stacksize for task 21: unlimited
  | Current stacksize for task 22: unlimited
  | Current stacksize for task 23: unlimited
  | Current stacksize for task 24: unlimited
  | Current stacksize for task 25: unlimited
  | Current stacksize for task 26: unlimited
  | Current stacksize for task 27: unlimited
  | Current stacksize for task 28: unlimited
  | Current stacksize for task 29: unlimited
  | Current stacksize for task 30: unlimited
  | Current stacksize for task 31: unlimited
  | Current stacksize for task 32: unlimited
  | Current stacksize for task 33: unlimited
  | Current stacksize for task 34: unlimited
  | Current stacksize for task 35: unlimited
  | Current stacksize for task 36: unlimited
  | Current stacksize for task 37: unlimited
  | Current stacksize for task 38: unlimited
  | Current stacksize for task 39: unlimited
  | Current stacksize for task 40: unlimited
  | Current stacksize for task 41: unlimited
  | Current stacksize for task 42: unlimited
  | Current stacksize for task 43: unlimited
  | Current stacksize for task 44: unlimited
  | Current stacksize for task 45: unlimited
  | Current stacksize for task 46: unlimited
  | Current stacksize for task 47: unlimited
  | Current stacksize for task 48: unlimited
  | Current stacksize for task 49: unlimited
  | Current stacksize for task 50: unlimited
  | Current stacksize for task 51: unlimited
  | Current stacksize for task 52: unlimited
  | Current stacksize for task 53: unlimited
  | Current stacksize for task 54: unlimited
  | Current stacksize for task 55: unlimited
  | Current stacksize for task 56: unlimited
  | Current stacksize for task 57: unlimited
  | Current stacksize for task 58: unlimited
  | Current stacksize for task 59: unlimited
  | Current stacksize for task 60: unlimited
  | Current stacksize for task 61: unlimited
  | Current stacksize for task 62: unlimited
  | Current stacksize for task 63: unlimited
  | Current stacksize for task 64: unlimited
  | Current stacksize for task 65: unlimited
  | Current stacksize for task 66: unlimited
  | Current stacksize for task 67: unlimited
  | Current stacksize for task 68: unlimited
  | Current stacksize for task 69: unlimited
  | Current stacksize for task 70: unlimited
  | Current stacksize for task 71: unlimited
  | Current stacksize for task 72: unlimited
  | Current stacksize for task 73: unlimited
  | Current stacksize for task 74: unlimited
  | Current stacksize for task 75: unlimited
  | Current stacksize for task 76: unlimited
  | Current stacksize for task 77: unlimited
  | Current stacksize for task 78: unlimited
  | Current stacksize for task 79: unlimited
  | Current stacksize for task 80: unlimited
  | Current stacksize for task 81: unlimited
  | Current stacksize for task 82: unlimited
  | Current stacksize for task 83: unlimited
  | Current stacksize for task 84: unlimited
  | Current stacksize for task 85: unlimited
  | Current stacksize for task 86: unlimited
  | Current stacksize for task 87: unlimited
  | Current stacksize for task 88: unlimited
  | Current stacksize for task 89: unlimited
  | Current stacksize for task 90: unlimited
  | Current stacksize for task 91: unlimited
  | Current stacksize for task 92: unlimited
  | Current stacksize for task 93: unlimited
  | Current stacksize for task 94: unlimited
  | Current stacksize for task 95: unlimited
  | Current stacksize for task 96: unlimited
  | Current stacksize for task 97: unlimited
  | Current stacksize for task 98: unlimited
  | Current stacksize for task 99: unlimited
  | Current stacksize for task 100: unlimited
  | Current stacksize for task 101: unlimited
  | Current stacksize for task 102: unlimited
  | Current stacksize for task 103: unlimited
  | Current stacksize for task 104: unlimited
  | Current stacksize for task 105: unlimited
  | Current stacksize for task 106: unlimited
  | Current stacksize for task 107: unlimited
  | Current stacksize for task 108: unlimited
  | Current stacksize for task 109: unlimited
  | Current stacksize for task 110: unlimited
  | Current stacksize for task 111: unlimited
  | Current stacksize for task 112: unlimited
  | Current stacksize for task 113: unlimited
  | Current stacksize for task 114: unlimited
  | Current stacksize for task 115: unlimited
  | Current stacksize for task 116: unlimited
  | Current stacksize for task 117: unlimited
  | Current stacksize for task 118: unlimited
  | Current stacksize for task 119: unlimited
  | Current stacksize for task 120: unlimited
  | Current stacksize for task 121: unlimited
  | Current stacksize for task 122: unlimited
  | Current stacksize for task 123: unlimited
  | Current stacksize for task 124: unlimited
  | Current stacksize for task 125: unlimited
  | Current stacksize for task 126: unlimited
  | Current stacksize for task 127: unlimited
  | Current stacksize for task 128: unlimited
  | Current stacksize for task 129: unlimited
  | Current stacksize for task 130: unlimited
  | Current stacksize for task 131: unlimited
  | Current stacksize for task 132: unlimited
  | Current stacksize for task 133: unlimited
  | Current stacksize for task 134: unlimited
  | Current stacksize for task 135: unlimited
  | Current stacksize for task 136: unlimited
  | Current stacksize for task 137: unlimited
  | Current stacksize for task 138: unlimited
  | Current stacksize for task 139: unlimited
  | Current stacksize for task 140: unlimited
  | Current stacksize for task 141: unlimited
  | Current stacksize for task 142: unlimited
  | Current stacksize for task 143: unlimited
  | Current stacksize for task 144: unlimited
  | Current stacksize for task 145: unlimited
  | Current stacksize for task 146: unlimited
  | Current stacksize for task 147: unlimited
  | Current stacksize for task 148: unlimited
  | Current stacksize for task 149: unlimited
  | Current stacksize for task 150: unlimited
  | Current stacksize for task 151: unlimited
  | Current stacksize for task 152: unlimited
  | Current stacksize for task 153: unlimited
  | Current stacksize for task 154: unlimited
  | Current stacksize for task 155: unlimited
  | Current stacksize for task 156: unlimited
  | Current stacksize for task 157: unlimited
  | Current stacksize for task 158: unlimited
  | Current stacksize for task 159: unlimited
  | Current stacksize for task 160: unlimited
  | Current stacksize for task 161: unlimited
  | Current stacksize for task 162: unlimited
  | Current stacksize for task 163: unlimited
  | Current stacksize for task 164: unlimited
  | Current stacksize for task 165: unlimited
  | Current stacksize for task 166: unlimited
  | Current stacksize for task 167: unlimited
  | Current stacksize for task 168: unlimited
  | Current stacksize for task 169: unlimited
  | Current stacksize for task 170: unlimited
  | Current stacksize for task 171: unlimited
  | Current stacksize for task 172: unlimited
  | Current stacksize for task 173: unlimited
  | Current stacksize for task 174: unlimited
  | Current stacksize for task 175: unlimited
  | Current stacksize for task 176: unlimited
  | Current stacksize for task 177: unlimited
  | Current stacksize for task 178: unlimited
  | Current stacksize for task 179: unlimited
  | Current stacksize for task 180: unlimited
  | Current stacksize for task 181: unlimited
  | Current stacksize for task 182: unlimited
  | Current stacksize for task 183: unlimited
  | Current stacksize for task 184: unlimited
  | Current stacksize for task 185: unlimited
  | Current stacksize for task 186: unlimited
  | Current stacksize for task 187: unlimited
  | Current stacksize for task 188: unlimited
  | Current stacksize for task 189: unlimited
  | Current stacksize for task 190: unlimited
  | Current stacksize for task 191: unlimited
  | Current stacksize for task 192: unlimited
  | Current stacksize for task 193: unlimited
  | Current stacksize for task 194: unlimited
  | Current stacksize for task 195: unlimited
  | Current stacksize for task 196: unlimited
  | Current stacksize for task 197: unlimited
  | Current stacksize for task 198: unlimited
  | Current stacksize for task 199: unlimited
  | Current stacksize for task 200: unlimited
  | Current stacksize for task 201: unlimited
  | Current stacksize for task 202: unlimited
  | Current stacksize for task 203: unlimited
  | Current stacksize for task 204: unlimited
  | Current stacksize for task 205: unlimited
  | Current stacksize for task 206: unlimited
  | Current stacksize for task 207: unlimited
  | Current stacksize for task 208: unlimited
  | Current stacksize for task 209: unlimited
  | Current stacksize for task 210: unlimited
  | Current stacksize for task 211: unlimited
  | Current stacksize for task 212: unlimited
  | Current stacksize for task 213: unlimited
  | Current stacksize for task 214: unlimited
  | Current stacksize for task 215: unlimited
 
  Consistency checks for the contents of control.in are next.
 
  HSE06 screening parameters: omega_HF  =      0.11000000 bohr^-1, and
                              omega_PBE =      0.11000000 bohr^-1.
  MPI_IN_PLACE appears to work with this MPI implementation.
  | Keeping use_mpi_in_place .true. (see manual).
  Explicit treatment of the Coulomb operator is needed, but the RI method is not specified.
  Coulomb operator: Defaulting to 'LVL fast' resolution of identity - RI_type = LVL_fast
  Species Se: Using default value for prodbas_acc =   1.000000E-04.
  Species Se: Using default value max_l_prodbas =    20.
  Species S: Using default value for prodbas_acc =   1.000000E-04.
  Species S: Using default value max_l_prodbas =    20.
  Species Mo: Using default value for prodbas_acc =   1.000000E-04.
  Species Mo: Using default value max_l_prodbas =    20.
  Species W: Using default value for prodbas_acc =   1.000000E-04.
  Species W: Using default value max_l_prodbas =    20.
  Target number of points in a grid batch is not set. Defaulting to  100
  Method for grid partitioning is not set. Defaulting to parallel hash+maxmin partitioning.
  Batch size limit is not set. Defaulting to    200
  By default, will store active basis functions for each batch.
  If in need of memory, prune_basis_once .false. can be used to disable this option.
  communication_type for Hartree potential was not specified.
  Defaulting to calc_hartree .
  Defaulting to Pulay charge density mixer.
  Pulay mixer: Number of relevant iterations not set.
  Defaulting to    8 iterations.
  Pulay mixer: Number of initial linear mixing iterations not set.
  Defaulting to    0 iterations.
  Work space size for distributed Hartree potential not set.
  Defaulting to   0.200000E+03 MB.
  Mixing parameter for charge density mixing has not been set.
  Using default: charge_mix_param =     0.0500.
  The mixing parameter will be adjusted in iteration number     2 of the first full s.c.f. cycle only.
[...]
   3554       0.00000                      13.253414          13.268326             0.000004
   3555       0.00000                      13.253747          13.270807             0.002481
   3556       0.00000                      13.253752          13.270812             0.000004
   3557       0.00000                      13.352621          13.360334             0.089522
   3558       0.00000                      13.352626          13.360336             0.000003
   3559       0.00000                      13.375790          13.366683             0.006347
   3560       0.00000                      13.375793          13.366684             0.000001
   3561       0.00000                      13.376709          13.391549             0.024865
   3562       0.00000                      13.376712          13.391551             0.000003
   3563       0.00000                      13.411198          13.404084             0.012532
   3564       0.00000                      13.411200          13.404085             0.000002
   3565       0.00000                      13.412117          13.430190             0.026105
   3566       0.00000                      13.412119          13.430192             0.000002
   3567       0.00000                      13.592843          13.598712             0.168521
   3568       0.00000                      13.592850          13.598719             0.000007
   3569       0.00000                      13.629122          13.632155             0.033435
   3570       0.00000                      13.629129          13.632162             0.000007
   3571       0.00000                      13.629243          13.633632             0.001470
   3572       0.00000                      13.629250          13.633639             0.000007
   3573       0.00000                      13.673455          13.680655             0.047016
   3574       0.00000                      13.673462          13.680662             0.000007
   3575       0.00000                      13.673487          13.681657             0.000995
   3576       0.00000                      13.673494          13.681665             0.000007
   3577       0.00000                      13.899750          13.902470             0.220806
   3578       0.00000                      13.899753          13.902473             0.000003
   3579       0.00000                      13.899921          13.906345             0.003872
   3580       0.00000                      13.899924          13.906348             0.000003
   3581       0.00000                      13.943736          13.947386             0.041038
   3582       0.00000                      13.943739          13.947389             0.000003
   3583       0.00000                      13.943891          13.948142             0.000752
   3584       0.00000                      13.943893          13.948143             0.000001
   3585       0.00000                      13.950389          13.950982             0.002840
   3586       0.00000                      13.950393          13.950984             0.000002
   3587       0.00000                      13.951824          13.959120             0.008136
   3588       0.00000                      13.951827          13.959123             0.000003
   3589       0.00000                      13.959231          13.966379             0.007256
   3590       0.00000                      13.959234          13.966382             0.000003
   3591       0.00000                      14.059295          14.055824             0.089442
   3592       0.00000                      14.059297          14.055826             0.000002
   3593       0.00000                      14.059354          14.069915             0.014089
   3594       0.00000                      14.059356          14.069917             0.000002
   3595       0.00000                      14.173810          14.175382             0.105465
   3596       0.00000                      14.173813          14.175384             0.000003
   3597       0.00000                      14.186342          14.187632             0.012247
   3598       0.00000                      14.186345          14.187635             0.000003
   3599       0.00000                      14.192987          14.194625             0.006990
   3600       0.00000                      14.192989          14.194626             0.000001
   3601       0.00000                      14.194735          14.196273             0.001647
   3602       0.00000                      14.194737          14.196275             0.000002
   3603       0.00000                      14.195266          14.197541             0.001266
   3604       0.00000                      14.195269          14.197542             0.000001
   3605       0.00000                      14.223696          14.224043             0.026501
   3606       0.00000                      14.223699          14.224045             0.000003
   3607       0.00000                      14.224076          14.227164             0.003119
   3608       0.00000                      14.224079          14.227167             0.000003
   3609       0.00000                      14.249441          14.245308             0.018141
   3610       0.00000                      14.249444          14.245310             0.000002
   3611       0.00000                      14.249619          14.260312             0.015002
   3612       0.00000                      14.249622          14.260314             0.000002
   3613       0.00000                      14.252701          14.263647             0.003334
   3614       0.00000                      14.252703          14.263649             0.000002
   3615       0.00000                      14.517110          14.523958             0.260309
   3616       0.00000                      14.517114          14.523962             0.000004
   3617       0.00000                      14.656188          14.655055             0.131092
   3618       0.00000                      14.656193          14.655059             0.000004
   3619       0.00000                      14.656648          14.679723             0.024664
   3620       0.00000                      14.656652          14.679727             0.000004

  What follows are estimated values for band gap, HOMO, LUMO, etc.
  | They are estimated on a discrete k-point grid and not necessarily exact.
  | For converged numbers, create a DOS and/or band structure plot on a denser k-grid.

  Highest occupied state (VBM) at     -5.76932379 eV (relative to internal zero)
  | Occupation number:      1.00000000
  | K-point:       6 at    0.250000    0.250000    0.000000 (in units of recip. lattice)

  Lowest unoccupied state (CBM) at    -3.83471788 eV (relative to internal zero)
  | Occupation number:      0.00000000
  | K-point:       1 at    0.000000    0.000000    0.000000 (in units of recip. lattice)

  ESTIMATED overall HOMO-LUMO gap:      1.93460591 eV between HOMO at k-point 6 and LUMO at k-point 1
  | This appears to be an indirect band gap.
  | Smallest direct gap :      1.94543531 eV for k_point 16 at    0.750000    0.750000    0.000000 (in units of recip. lattice)
  The gap value is above 0.2 eV. Unless you are using a very sparse k-point grid,
  this system is most likely an insulator or a semiconductor.
  | Potential vacuum level, "upper" slab surface:     0.05407999 eV
  | Potential vacuum level, "lower" slab surface:    -0.13650883 eV
  | Work function ("upper" slab surface)        :     4.56008855 eV
  | Work function ("lower" slab surface)        :     4.36949974 eV
  *** Warning: band gap may exist, check the suitability to define work function using chemical potential.
  | VBM (reference: upper vacuum level)         :     5.82340378 eV
  | CBM (reference: upper vacuum level)         :     3.88879787 eV

  Spin-orbit coupling                                     :  max(cpu_time)    wall_clock(cpu1)
  | Computing matrix elements for SOC operator            :          8.792               8.792
  | Constructing second-variational Hamiltonian           :          4.950               4.951
  | Diagonalizing second-variational Hamiltonian          :          5.240               5.240
  | Syncing data and calculating occupations              :          9.456               9.350
  | Writing out data, calculating band gaps, etc.         :          0.015               0.016
  | Total SOC time                                        :         28.351              28.352

  Partial memory accounting:
  | Current value for overall tracked memory usage:
  |   Minimum:      372.732 MB (on task   8)
  |   Maximum:      981.303 MB (on task 131)
  |   Average:      749.719 MB
  | Peak value for overall tracked memory usage:
  |   Minimum:      502.459 MB (on task   8 after allocating temp_cmplx_eienvec)
  |   Maximum:     1114.020 MB (on task 131 after allocating temp_cmplx_eienvec)
  |   Average:      881.553 MB
  | Largest tracked array allocation so far:
  |   Minimum:       82.925 MB (soc_matrix on task   4)
  |   Maximum:      216.864 MB (ovlp3fn for atom on task  89)
  |   Average:      159.954 MB
  Note:  These values currently only include a subset of arrays which are explicitly tracked.
  The "true" memory usage will be greater.
 ------------------------------------------------------------
 Work function related results without post-SCF corrections:
 ------------------------------------------------------------
  | Chemical Potential                          :    -5.14572364 eV
  Writing energy levels:
  | Potential vacuum level, "upper" slab surface:     0.05407999 eV
  | Potential vacuum level, "lower" slab surface:    -0.13650883 eV
  Spin-up energy levels:
  | Work function-spin ("upper" slab surface)   :     5.19980363 eV
  | Work function-spin ("lower" slab surface)   :     5.00921481 eV
  *** Warning: band gap may exist, check the suitability to define work function using chemical potential.
  | VBM-spin (reference: upper vacuum level)    :     5.91700764 eV
  | CBM-spin (reference: upper vacuum level)    :     3.89083332 eV
  Spin-down energy levels:
  | Work function-spin ("upper" slab surface)   :     5.19980363 eV
  | Work function-spin ("lower" slab surface)   :     5.00921481 eV
  *** Warning: band gap may exist, check the suitability to define work function using chemical potential.
  | VBM-spin (reference: upper vacuum level)    :     5.91701492 eV
  | CBM-spin (reference: upper vacuum level)    :     3.89083594 eV
 ------------------------------------------------------------
 Work function related results including post-SCF second variational SOC corrections:
 ------------------------------------------------------------
  | Chemical Potential                          :    -4.50600856 eV
  Writing energy levels:
  | Potential vacuum level, "upper" slab surface:     0.05407999 eV
  | Potential vacuum level, "lower" slab surface:    -0.13650883 eV
  | Work function ("upper" slab surface)        :     4.56008855 eV
  | Work function ("lower" slab surface)        :     4.36949974 eV
  *** Warning: band gap may exist, check the suitability to define work function using chemical potential.
  | VBM (reference: upper vacuum level)         :     5.82340378 eV
  | CBM (reference: upper vacuum level)         :     3.88879787 eV
 ------------------------------------------------------------

------------------------------------------------------------------------------
  Final output of selected total energy values:

  The following output summarizes some interesting total energy values
  at the end of a run (AFTER all relaxation, molecular dynamics, etc.).

  | Total energy of the DFT / Hartree-Fock s.c.f. calculation      :       -6174939.696932867 eV
  | Final zero-broadening corrected energy (caution - metals only) :       -6174939.696932867 eV
  | Total energy after non-SC SOC correction (DO NOT USE)          :       -6174943.757144225 eV
  | For reference only, the value of 1 Hartree used in FHI-aims is :             27.211384500 eV
  | For reference only, the overall average (free atom contribution
  | + realspace contribution) of the electrostatic potential after
  | s.c.f. convergence is                                          :             -1.243264230 eV

  Before relying on these values, please be sure to understand exactly which
  total energy value is referred to by a given number. Different objects may
  all carry the same name 'total energy'. Definitions:

  Total energy of the DFT / Hartree-Fock s.c.f. calculation:
  | Note that this energy does not include ANY quantities calculated after the
  | s.c.f. cycle, in particular not ANY RPA, MP2, etc. many-body perturbation terms.

  Final zero-broadening corrected energy:
  | For metallic systems only, a broadening of the occupation numbers at the Fermi
  | level can be extrapolated back to zero broadening by an electron-gas inspired
  | formula. For all systems that are not real metals, this value can be
  | meaningless and should be avoided.

------------------------------------------------------------------------------
  Methods described in the following list of references were used in this FHI-aims run.
  If you publish the results, please make sure to cite these reference if they apply.
  FHI-aims is an academic code, and for our developers (often, Ph.D. students
  and postdocs), scientific credit in the community is essential.
  Thank you for helping us!

  For any use of FHI-aims, please cite:

    Volker Blum, Ralf Gehrke, Felix Hanke, Paula Havu, Ville Havu,
    Xinguo Ren, Karsten Reuter, and Matthias Scheffler
    'Ab initio molecular simulations with numeric atom-centered orbitals'
    Computer Physics Communications 180, 2175-2196 (2009)
    http://doi.org/10.1016/j.cpc.2009.06.022


  For Hartree-Fock, hybrid functionals, or many-body perturbation theory used in your run, please cite:

    Xinguo Ren, Patrick Rinke, Volker Blum, Juergen Wieferink, Alex Tkatchenko,
    Andrea Sanfilippo, Karsten Reuter, and Matthias Scheffler,
    'Resolution-of-identity approach to Hartree-Fock, hybrid density functionals,
    RPA, MP2, and GW with numeric atom-centered orbital basis functions'
    New Journal of Physics 14, 053020 (2012).
    http://doi.org/10.1088/1367-2630/14/5/053020


  The provided symmetry information was generated with SPGlib:

    Atsushi Togo, Yusuke Seto, Dimitar Pashov
    SPGlib 1.7.3 obtained from http://spglib.sourceforge.net
    Copyright (C) 2008 Atsushi Togo


  For second-variational spin-orbit coupling used in your run, please cite:

    William P. Huhn and Volker Blum,
    'One-hundred-three compound band-structure benchmark of post-self-consistent'
    'spin-orbit coupling treatments in density functional theory'
    Phys. Rev. Materials 1, 033803 (2017).


  The ELSI infrastructure was used in your run to solve the Kohn-Sham electronic structure.
  Please check out http://elsi-interchange.org to learn more.
  If scalability is important for your project, please acknowledge ELSI by citing:

    V. W-z. Yu, F. Corsetti, A. Garcia, W. P. Huhn, M. Jacquelin, W. Jia,
    B. Lange, L. Lin, J. Lu, W. Mi, A. Seifitokaldani, A. Vazquez-Mayagoitia,
    C. Yang, H. Yang, and V. Blum
    'ELSI: A unified software interface for Kohn-Sham electronic structure solvers'
    Computer Physics Communications 222, 267-285 (2018).
    http://doi.org/10.1016/j.cpc.2017.09.007


  For the real-space grid partitioning and parallelization used in this calculation, please cite:

    Ville Havu, Volker Blum, Paula Havu, and Matthias Scheffler,
    'Efficient O(N) integration for all-electron electronic structure calculation'
    'using numerically tabulated basis functions'
    Journal of Computational Physics 228, 8367-8379 (2009).
    http://doi.org/10.1016/j.jcp.2009.08.008


  The high-level electronic structure method used in your calculation
  employed our efficient localized resolution of identity for the Coulomb operator.
  Some calculations, especially large-scale hybrid density functional theory,
  are only possible thanks to this development. For this feature, please cite:

    Arvid Ihrig, Juergen Wieferink, Igor Ying Zhang, Matti Ropo, Xinguo Ren,
    Patrick Rinke, Matthias Scheffler, and Volker Blum,
    'Accurate localized resolution of identity approach for linear-scaling
    hybrid density functionals and for many-body perturbation theory'
    New Journal of Physics 117, 093020 (2015).
    http://doi.org/10.1088/1367-2630/17/9/093020

  Of course, there are many other important community references, e.g., those cited in the
  above references. Our list is limited to references that describe implementations in the
  FHI-aims code. The reason is purely practical (length of this list) - please credit others as well.

------------------------------------------------------------
          Leaving FHI-aims.
          Date     :  20220915, Time     :  195934.572

          Computational steps:
          | Number of self-consistency cycles          :           22
          | Number of SCF (re)initializations          :            1
          | Number of relaxation steps                 :            0

          Detailed time accounting                     :  max(cpu_time)    wall_clock(cpu1)
          | Total time                                  :     2908.630 s        2909.572 s
          | Preparation time                            :        1.366 s           1.412 s
          | Boundary condition initalization            :        0.994 s           0.993 s
          | Grid partitioning                           :        4.650 s           4.650 s
          | Preloading free-atom quantities on grid     :        2.190 s           2.197 s
          | Free-atom superposition energy              :        0.075 s           0.075 s
          | Total time for integrations                 :       45.209 s          45.210 s
          | Product basis setup: Total time             :      267.561 s         267.570 s
          | Total time evaluating exchange matrix       :     2191.221 s        2190.321 s
          | Total time for solution of K.-S. equations  :      166.569 s         166.567 s
          | Total time for EV reorthonormalization      :        0.000 s           0.000 s
          | Total time for density & force components   :      147.837 s         147.838 s
          | Total time for mixing                       :        0.232 s           0.230 s
          | Total time for Hartree multipole update     :        0.292 s           0.289 s
          | Total time for Hartree multipole sum        :       41.460 s          41.462 s
          | Total time for total energy evaluation      :        0.067 s           0.054 s
          | Total time NSC force correction             :        2.836 s           2.836 s
          | Total time for scaled ZORA corrections      :        0.000 s           0.000 s
          | Total time for vdW correction               :        8.103 s           8.106 s
          | Total time for perturbative SOC             :       28.351 s          28.352 s

          Partial memory accounting:
          | Residual value for overall tracked memory usage across tasks:     0.000000 MB (should be 0.000000 MB)
          | Peak values for overall tracked memory usage:
          |   Minimum:      502.459 MB (on task   8 after allocating temp_cmplx_eienvec)
          |   Maximum:     1114.020 MB (on task 131 after allocating temp_cmplx_eienvec)
          |   Average:      881.553 MB
          | Largest tracked array allocation:
          |   Minimum:       82.925 MB (soc_matrix on task   4)
          |   Maximum:      216.864 MB (ovlp3fn for atom on task  89)
          |   Average:      159.954 MB
          Note:  These values currently only include a subset of arrays which are explicitly tracked.
          The "true" memory usage will be greater.

          Have a nice day.
------------------------------------------------------------
