------------------------------------------------------------
          Invoking FHI-aims ...

          When using FHI-aims, please cite the following reference:

            Volker Blum, Ralf Gehrke, Felix Hanke, Paula Havu,
            Ville Havu, Xinguo Ren, Karsten Reuter, and Matthias Scheffler,
            'Ab Initio Molecular Simulations with Numeric Atom-Centered Orbitals',
            Computer Physics Communications 180, 2175-2196 (2009)

          In addition, many other developments in FHI-aims are likely important for
          your particular application. A partial list of references is given at the end of
          this file. Thank you for giving credit to the authors of these developments.

          For any questions about FHI-aims, please visit our slack channel at

            https://fhi-aims.slack.com

          and our main development and support site at

            https://aims-git.rz-berlin.mpg.de .

          The latter site, in particular, has a wiki to collect information, as well
          as an issue tracker to log discussions, suggest improvements, and report issues
          or bugs. https://aims-git.rz-berlin.mpg.de is also the main development site
          of the project and all new and updated code versions can be obtained there.
          Please send an email to aims-coordinators@fhi-berlin.mpg.de and we will add
          you to these sites. They are for you and everyone is welcome there.

------------------------------------------------------------



  Date     :  20220913, Time     :  142020.630
  Time zero on CPU 1             :   0.322643600000000E+01  s.
  Internal wall clock time zero  :           432310820.630  s.

  FHI-aims created a unique identifier for this run for later identification
  aims_uuid : D02D758B-1881-41D1-A46C-4E9D6DF744D9

  Build configuration of the current instance of FHI-aims
  -------------------------------------------------------
  FHI-aims version      : 220117
  Commit number         : 0c0e6afe2
  CMake host system     : Linux-5.3.18-24.99-default
  CMake version         : 3.22.0
  Fortran compiler      : /mpcdf/soft/SLE_15/packages/x86_64/intel_oneapi/2021.4/mpi/2021.4.0/bin/mpiifort (Intel) version 2021.4.0.20210910
  Fortran compiler flags: -O3 -ip -fp-model precise
  C compiler            : /mpcdf/soft/SLE_15/packages/x86_64/intel/2021.4.0/bin/icc (Intel) version 2021.4.0.20210910
  C compiler flags      : -O3 -ip -fp-model precise
  C++ compiler          : /mpcdf/soft/SLE_15/packages/x86_64/intel/2021.4.0/bin/icpc (Intel) version 2021.4.0.20210910
  C++ compiler flags    : -O3 -ip -fp-model precise
  Using MPI
  Using ScaLAPACK
  Using LibXC
  Using i-PI
  Using RLSY
  Linking against: /mpcdf/soft/SLE_15/packages/x86_64/intel_oneapi/2021.4/mkl/latest/lib/intel64/libmkl_intel_lp64.so
                   /mpcdf/soft/SLE_15/packages/x86_64/intel_oneapi/2021.4/mkl/latest/lib/intel64/libmkl_sequential.so
                   /mpcdf/soft/SLE_15/packages/x86_64/intel_oneapi/2021.4/mkl/latest/lib/intel64/libmkl_core.so
                   /mpcdf/soft/SLE_15/packages/x86_64/intel_oneapi/2021.4/mkl/latest/lib/intel64/libmkl_blacs_intelmpi_lp64.so
                   /mpcdf/soft/SLE_15/packages/x86_64/intel_oneapi/2021.4/mkl/latest/lib/intel64/libmkl_scalapack_lp64.so

  Using      216 parallel tasks.
  Task        0 on host ravg1016 reporting.
  Task        1 on host ravg1016 reporting.
  Task        2 on host ravg1016 reporting.
  Task        3 on host ravg1016 reporting.
  Task        4 on host ravg1016 reporting.
  Task        5 on host ravg1016 reporting.
  Task        6 on host ravg1016 reporting.
  Task        7 on host ravg1016 reporting.
  Task        8 on host ravg1016 reporting.
  Task        9 on host ravg1016 reporting.
  Task       10 on host ravg1016 reporting.
  Task       11 on host ravg1016 reporting.
  Task       12 on host ravg1016 reporting.
  Task       13 on host ravg1016 reporting.
  Task       14 on host ravg1016 reporting.
  Task       15 on host ravg1016 reporting.
  Task       16 on host ravg1016 reporting.
  Task       17 on host ravg1016 reporting.
  Task       18 on host ravg1016 reporting.
  Task       19 on host ravg1016 reporting.
  Task       20 on host ravg1016 reporting.
  Task       21 on host ravg1016 reporting.
  Task       22 on host ravg1016 reporting.
  Task       23 on host ravg1016 reporting.
  Task       24 on host ravg1016 reporting.
  Task       25 on host ravg1016 reporting.
  Task       26 on host ravg1016 reporting.
  Task       27 on host ravg1016 reporting.
  Task       28 on host ravg1016 reporting.
  Task       29 on host ravg1016 reporting.
  Task       30 on host ravg1016 reporting.
  Task       31 on host ravg1016 reporting.
  Task       32 on host ravg1016 reporting.
  Task       33 on host ravg1016 reporting.
  Task       34 on host ravg1016 reporting.
  Task       35 on host ravg1016 reporting.
  Task       36 on host ravg1016 reporting.
  Task       37 on host ravg1016 reporting.
  Task       38 on host ravg1016 reporting.
  Task       39 on host ravg1016 reporting.
  Task       40 on host ravg1016 reporting.
  Task       41 on host ravg1016 reporting.
  Task       42 on host ravg1016 reporting.
  Task       43 on host ravg1016 reporting.
  Task       44 on host ravg1016 reporting.
  Task       45 on host ravg1016 reporting.
  Task       46 on host ravg1016 reporting.
  Task       47 on host ravg1016 reporting.
  Task       48 on host ravg1016 reporting.
  Task       49 on host ravg1016 reporting.
  Task       50 on host ravg1016 reporting.
  Task       51 on host ravg1016 reporting.
  Task       52 on host ravg1016 reporting.
  Task       53 on host ravg1016 reporting.
  Task       54 on host ravg1016 reporting.
  Task       55 on host ravg1016 reporting.
  Task       56 on host ravg1016 reporting.
  Task       57 on host ravg1016 reporting.
  Task       58 on host ravg1016 reporting.
  Task       59 on host ravg1016 reporting.
  Task       60 on host ravg1016 reporting.
  Task       61 on host ravg1016 reporting.
  Task       62 on host ravg1016 reporting.
  Task       63 on host ravg1016 reporting.
  Task       64 on host ravg1016 reporting.
  Task       65 on host ravg1016 reporting.
  Task       66 on host ravg1016 reporting.
  Task       67 on host ravg1016 reporting.
  Task       68 on host ravg1016 reporting.
  Task       69 on host ravg1016 reporting.
  Task       70 on host ravg1016 reporting.
  Task       71 on host ravg1016 reporting.
  Task       72 on host ravg1063 reporting.
  Task       73 on host ravg1063 reporting.
  Task       74 on host ravg1063 reporting.
  Task       75 on host ravg1063 reporting.
  Task       76 on host ravg1063 reporting.
  Task       77 on host ravg1063 reporting.
  Task       78 on host ravg1063 reporting.
  Task       79 on host ravg1063 reporting.
  Task       80 on host ravg1063 reporting.
  Task       81 on host ravg1063 reporting.
  Task       82 on host ravg1063 reporting.
  Task       83 on host ravg1063 reporting.
  Task       84 on host ravg1063 reporting.
  Task       85 on host ravg1063 reporting.
  Task       86 on host ravg1063 reporting.
  Task       87 on host ravg1063 reporting.
  Task       88 on host ravg1063 reporting.
  Task       89 on host ravg1063 reporting.
  Task       90 on host ravg1063 reporting.
  Task       91 on host ravg1063 reporting.
  Task       92 on host ravg1063 reporting.
  Task       93 on host ravg1063 reporting.
  Task       94 on host ravg1063 reporting.
  Task       95 on host ravg1063 reporting.
  Task       96 on host ravg1063 reporting.
  Task       97 on host ravg1063 reporting.
  Task       98 on host ravg1063 reporting.
  Task       99 on host ravg1063 reporting.
  Task      100 on host ravg1063 reporting.
  Task      101 on host ravg1063 reporting.
  Task      102 on host ravg1063 reporting.
  Task      103 on host ravg1063 reporting.
  Task      104 on host ravg1063 reporting.
  Task      105 on host ravg1063 reporting.
  Task      106 on host ravg1063 reporting.
  Task      107 on host ravg1063 reporting.
  Task      108 on host ravg1063 reporting.
  Task      109 on host ravg1063 reporting.
  Task      110 on host ravg1063 reporting.
  Task      111 on host ravg1063 reporting.
  Task      112 on host ravg1063 reporting.
  Task      113 on host ravg1063 reporting.
  Task      114 on host ravg1063 reporting.
  Task      115 on host ravg1063 reporting.
  Task      116 on host ravg1063 reporting.
  Task      117 on host ravg1063 reporting.
  Task      118 on host ravg1063 reporting.
  Task      119 on host ravg1063 reporting.
  Task      120 on host ravg1063 reporting.
  Task      121 on host ravg1063 reporting.
  Task      122 on host ravg1063 reporting.
  Task      123 on host ravg1063 reporting.
  Task      124 on host ravg1063 reporting.
  Task      125 on host ravg1063 reporting.
  Task      126 on host ravg1063 reporting.
  Task      127 on host ravg1063 reporting.
  Task      128 on host ravg1063 reporting.
  Task      129 on host ravg1063 reporting.
  Task      130 on host ravg1063 reporting.
  Task      131 on host ravg1063 reporting.
  Task      132 on host ravg1063 reporting.
  Task      133 on host ravg1063 reporting.
  Task      134 on host ravg1063 reporting.
  Task      135 on host ravg1063 reporting.
  Task      136 on host ravg1063 reporting.
  Task      137 on host ravg1063 reporting.
  Task      138 on host ravg1063 reporting.
  Task      139 on host ravg1063 reporting.
  Task      140 on host ravg1063 reporting.
  Task      141 on host ravg1063 reporting.
  Task      142 on host ravg1063 reporting.
  Task      143 on host ravg1063 reporting.
  Task      144 on host ravg1091 reporting.
  Task      145 on host ravg1091 reporting.
  Task      146 on host ravg1091 reporting.
  Task      147 on host ravg1091 reporting.
  Task      148 on host ravg1091 reporting.
  Task      149 on host ravg1091 reporting.
  Task      150 on host ravg1091 reporting.
  Task      151 on host ravg1091 reporting.
  Task      152 on host ravg1091 reporting.
  Task      153 on host ravg1091 reporting.
  Task      154 on host ravg1091 reporting.
  Task      155 on host ravg1091 reporting.
  Task      156 on host ravg1091 reporting.
  Task      157 on host ravg1091 reporting.
  Task      158 on host ravg1091 reporting.
  Task      159 on host ravg1091 reporting.
  Task      160 on host ravg1091 reporting.
  Task      161 on host ravg1091 reporting.
  Task      162 on host ravg1091 reporting.
  Task      163 on host ravg1091 reporting.
  Task      164 on host ravg1091 reporting.
  Task      165 on host ravg1091 reporting.
  Task      166 on host ravg1091 reporting.
  Task      167 on host ravg1091 reporting.
  Task      168 on host ravg1091 reporting.
  Task      169 on host ravg1091 reporting.
  Task      170 on host ravg1091 reporting.
  Task      171 on host ravg1091 reporting.
  Task      172 on host ravg1091 reporting.
  Task      173 on host ravg1091 reporting.
  Task      174 on host ravg1091 reporting.
  Task      175 on host ravg1091 reporting.
  Task      176 on host ravg1091 reporting.
  Task      177 on host ravg1091 reporting.
  Task      178 on host ravg1091 reporting.
  Task      179 on host ravg1091 reporting.
  Task      180 on host ravg1091 reporting.
  Task      181 on host ravg1091 reporting.
  Task      182 on host ravg1091 reporting.
  Task      183 on host ravg1091 reporting.
  Task      184 on host ravg1091 reporting.
  Task      185 on host ravg1091 reporting.
  Task      186 on host ravg1091 reporting.
  Task      187 on host ravg1091 reporting.
  Task      188 on host ravg1091 reporting.
  Task      189 on host ravg1091 reporting.
  Task      190 on host ravg1091 reporting.
  Task      191 on host ravg1091 reporting.
  Task      192 on host ravg1091 reporting.
  Task      193 on host ravg1091 reporting.
  Task      194 on host ravg1091 reporting.
  Task      195 on host ravg1091 reporting.
  Task      196 on host ravg1091 reporting.
  Task      197 on host ravg1091 reporting.
  Task      198 on host ravg1091 reporting.
  Task      199 on host ravg1091 reporting.
  Task      200 on host ravg1091 reporting.
  Task      201 on host ravg1091 reporting.
  Task      202 on host ravg1091 reporting.
  Task      203 on host ravg1091 reporting.
  Task      204 on host ravg1091 reporting.
  Task      205 on host ravg1091 reporting.
  Task      206 on host ravg1091 reporting.
  Task      207 on host ravg1091 reporting.
  Task      208 on host ravg1091 reporting.
  Task      209 on host ravg1091 reporting.
  Task      210 on host ravg1091 reporting.
  Task      211 on host ravg1091 reporting.
  Task      212 on host ravg1091 reporting.
  Task      213 on host ravg1091 reporting.
  Task      214 on host ravg1091 reporting.
  Task      215 on host ravg1091 reporting.

  Performing system and environment tests:
  | Environment variable OMP_NUM_THREADS correctly set to 1.
  | Checking for ScaLAPACK...
  | Testing pdtran()...
  | All pdtran() tests passed.

  Obtaining array dimensions for all initial allocations:
  
  -----------------------------------------------------------------------
  Parsing control.in (first pass over file, find array dimensions only).
  The contents of control.in will be repeated verbatim below
  unless switched off by setting 'verbatim_writeout .false.' .
  in the first line of control.in .
  -----------------------------------------------------------------------
  
  xc                 hse06  0.11
  hse_unit b
  spin               collinear
  default_initial_moment 1
  charge      0.0
  relativistic       atomic_zora scalar
  #elsi_restart read
  # SCF settings
  relax_geometry bfgs 1E-3
  #relax_unit_cell fixed_angles
  use_symmetric_forces .true.
  occupation_type gaussian       0.1
  # k-grid settings  (to be adjusted)
  k_grid  4 4 1
  #empty_states 8
  use_dipole_correction
  include_spin_orbit non_self_consistent
  # sc_accuracy_rho    1E-4
  #    sc_accuracy_eev    1E-3
  #    sc_accuracy_etot   1E-4
  #    sc_accuracy_forces 1E-2
  many_body_dispersion_nl    beta=0.83
  ################################################################################
  #
  #  FHI-aims code project
  #  Volker Blum, 2018
  #
  #  Suggested "intermediate" defaults for Se atom (to be pasted into control.in file)
  #
  #  2020/09/15 These "intermediate" settings are identical to past "tight" defaults
  #             and differ only in the "g" function that is now included in "tight".
  #
  ################################################################################
    species        Se
  #     global species definitions
      nucleus             34
      mass                78.96
  #
      l_hartree           6
  #
      cut_pot             4.0          2.0  1.0
      basis_dep_cutoff    1e-4
  #
      radial_base         55 7.0
      radial_multiplier   2
      angular_grids       specified
        division   0.0830  110
        division   0.1357  194
        division   0.7377  302
        division   0.8610  434
  #      division   0.9640  590
  #      division   1.0773  770
  #      division   2.5539  974
  #      outer_grid  974
        outer_grid  434
  ################################################################################
  #
  #  Definition of "minimal" basis
  #
  ################################################################################
  #     valence basis states
      valence      4  s   2.
      valence      4  p   4.
      valence      3  d  10.
  #     ion occupancy
      ion_occ      4  s   1.
      ion_occ      4  p   3.
      ion_occ      3  d  10.
  ################################################################################
  #
  #  Suggested additional basis functions. For production calculations,
  #  uncomment them one after another (the most important basis functions are
  #  listed first).
  #
  #  Constructed for dimers: 1.85 A, 2.15 A, 2.50 A, 3.00 A, 4.00 A
  #
  ################################################################################
  #  "First tier" - improvements: -336.21 meV to -36.85 meV
       hydro 3 d 4.3
       hydro 2 p 1.6
       hydro 4 f 7.2
       ionic 4 s auto
  #  "Second tier" - improvements: -14.39 meV to -1.49 meV
  #     hydro 5 g 10.4
  #     hydro 4 p 4.5
  #     hydro 4 d 6.2
  #     hydro 4 f 11.2
  #     hydro 1 s 0.65
  #     hydro 6 h 15.2
  #  "Third tier" - improvements: -0.46 meV and below
  #     hydro 5 g 14.4
  #     ionic 4 d auto
  #     hydro 4 f 22.4
  #     hydro 5 f 7.4
  #     hydro 5 p 8
  #     hydro 5 s 9.4
  #  "Fourth tier" - improvements: -0.12 meV and below
  #     hydro 5 d 11.6
  #     hydro 6 h 18
  #     hydro 4 p 4
  #     hydro 5 f 16
  #     hydro 4 s 3.9
  
  
  ################################################################################
  #
  #  FHI-aims code project
  #  Volker Blum, 2018
  #
  #  Suggested "intermediate" defaults for S atom (to be pasted into control.in file)
  #
  ################################################################################
    species        S
  #     global species definitions
      nucleus             16
      mass                32.065
  #
      l_hartree           6
  #
      cut_pot             4.0          2.0  1.0
      basis_dep_cutoff    1e-4
  #
      radial_base         44 7.0
      radial_multiplier   2
      angular_grids       specified
        division   0.4665  110
        division   0.5810  194
        division   0.7139  302
        division   0.8274  434
  #      division   0.9105  590
  #      division   1.0975  770
  #      division   1.2028  974
  #      outer_grid  974
        outer_grid  434
  ################################################################################
  #
  #  Definition of "minimal" basis
  #
  ################################################################################
  #     valence basis states
      valence      3  s   2.
      valence      3  p   4.
  #     ion occupancy
      ion_occ      3  s   1.
      ion_occ      3  p   3.
  ################################################################################
  #
  #  Suggested additional basis functions. For production calculations,
  #  uncomment them one after another (the most important basis functions are
  #  listed first).
  #
  #  Constructed for dimers: 1.6 A, 1.9 A, 2.5 A, 3.25 A, 4.0 A
  #
  ################################################################################
  #  "First tier" - improvements: -652.81 meV to -45.53 meV
       ionic 3 d auto
       hydro 2 p 1.8
       hydro 4 f 7
       ionic 3 s auto
  #  "Second tier" - improvements: -30.20 meV to -1.74 meV
  #     hydro 4 d 6.2
  for_aux     hydro 5 g 10.8
  #     hydro 4 p 4.9
  #     hydro 5 f 10
  #     hydro 1 s 0.8
  #  "Third tier" - improvements: -1.04 meV to -0.20 meV
  #     hydro 3 d 3.9
  #     hydro 3 d 2.7
  #     hydro 5 g 12
  #     hydro 4 p 10.4
  #     hydro 5 f 12.4
  #     hydro 2 s 1.9
  #  "Fourth tier" - improvements: -0.35 meV to -0.06 meV
  #     hydro 4 d 10.4
  #     hydro 4 p 7.2
  #     hydro 4 d 10
  #     hydro 5 g 19.2
  #     hydro 4 s 12
  
  ################################################################################
  #
  #  FHI-aims code project
  # Volker Blum, Fritz Haber Institute Berlin, 2009
  #
  #  Suggested "intermediate" defaults for Mo atom (to be pasted into control.in file)
  #
  #  See https://aaltodoc.aalto.fi/handle/123456789/33620 for the report these
  #  setting are based on
  ################################################################################
    species        Mo
  #     global species definitions
      nucleus             42
      mass                95.94
  #
      l_hartree           6
  #
      cut_pot             4.0  2.0  1.0
      basis_dep_cutoff    1e-4
  #
      radial_base         59 7.0
      radial_multiplier   2
      angular_grids specified
        division   0.3117   50
        division   0.6750  110
        division   1.0351  194
        division   1.2073  302
        division   1.6402  434
  #      division   1.9185  590
  #      division   2.0237  770
  #      division   2.0980  974
  #      division   2.7972 1202
  #      outer_grid  974
        outer_grid  434
  ################################################################################
  #
  #  Definition of "minimal" basis
  #
  ################################################################################
  #     valence basis states
      valence      5  s   1.
      valence      4  p   6.
      valence      4  d   5.
  #     ion occupancy
      ion_occ     5  s   0.
      ion_occ     4  p   6.
      ion_occ     4  d   4.
  ################################################################################
  #
  #  Suggested additional basis functions. For production calculations,
  #  uncomment them one after another (the most important basis functions are
  #  listed first).
  #
  #  Constructed for dimers: 1.675 A, 1.9 A, 2.375 A, 3.00 A, 4.00 A
  #
  ################################################################################
  #  "First tier"  - max. impr. -711.23  meV, min. impr. -21.07 meV
       hydro 4 f 8.4
       hydro 3 d 2.8
       ionic 5 p auto
       for_aux hydro 5 g 12
       ionic 5 s auto
  #  "Second tier" - max. impr. -39.38  meV, min. impr. -2.68 meV
  #     hydro 4 f 12.4
  #     hydro 3 d 3.3
  #     hydro 6 h 17.2
  #     hydro 4 f 7.6
  #     hydro 3 p 3.0
  #     hydro 1 s 0.65
  #  "Third tier"  - max. impr. -5.50 meV, min. impr. -0.47 meV
  #     hydro 4 f 29.2
  #     hydro 5 g 11.2
  #     hydro 3 d 6.8
  #     hydro 6 h 14.8
  #     hydro 2 p 2.3
  #     hydro 4 s 3.8
  #  "Fourth tier"  - max. impr. -0.58 meV, min. impr. -0.19 meV
  #     hydro 5 f 6.8
  #     hydro 5 d 14.8
  #     hydro 6 s 7.8
  #     hydro 5 g 20.8
  #     hydro 5 d 10.4
  #     hydro 5 p 9.8
  #  Further functions - -0.17 meV and below
  #     hydro 5 d 3.2
  ################################################################################
  #
  #  FHI-aims code project
  #  Volker Blum, Maria Dragoumi, Sebastian Kokott 2020
  #
  #  Suggested "intermediate" defaults for W atom (to be pasted into control.in file)
  #
  ################################################################################
    species          W
  #     global species definitions
      nucleus        74
      mass           183.84
  #
      l_hartree      6
  #
      cut_pot        4.0  2.0  1.0
      basis_dep_cutoff    1e-4
  #
      radial_base    71  7.0
      radial_multiplier  2
      angular_grids specified
        division   0.2901   50
        division   0.6986  110
        division   1.0528  194
        division   1.2659  302
        division   1.5223  434
  #      division   1.8111  590
  #      division   2.0105  770
  #      division   2.0413  974
  #      division   2.8804 1202
  #      outer_grid  974
        outer_grid  434
  ################################################################################
  #
  #  Definition of "minimal" basis
  #
  ################################################################################
  #     valence basis states
      valence      6  s   2.
      valence      5  p   6.
      valence      5  d   4.
      valence      4  f  14.
  #     ion occupancy
      ion_occ      6  s   1.
      ion_occ      5  p   6.
      ion_occ      5  d   3.
      ion_occ      4  f  14.
  ################################################################################
  #
  #  Suggested additional basis functions. For production calculations,
  #  uncomment them one after another (the most important basis functions are
  #  listed first).
  #
  #  Constructed for dimers: 1.775, 1.99, 2.50, 3.25, 4.50 AA
  #
  ################################################################################
  #
  #  "First tier" - improvements: -603.77 meV to -28.99 meV
       hydro 4 f 7.8
       hydro 4 d 5.8
       ionic 6 p auto
    for_aux   hydro 5 g 12.4
       ionic 6 s auto
  #  "Second tier" - improvements: -28.30 meV to -1.31 meV
  #     hydro 6 h 16.8
  #     ionic 5 d auto
  #     hydro 4 f 8.6
  #     hydro 5 g 16.8
  #     hydro 5 d 8.4
  #     hydro 3 p 3.3
  #     hydro 1 s 0.55
  #  "Third tier" - max. impr. -1.79 meV, min. impr. -0.26 meV
  #     hydro 5 f 10.8
  #     hydro 5 g 34.4
  #     hydro 6 h 20.8
  #     hydro 5 g 12.8
  #     hydro 2 p 1.6
  #     hydro 4 s 4.7
  #     hydro 6 d 18.4
  #  "Fourth tier" -0.46 max. impr. - meV, min. impr. -0.09 meV
  #     hydro 6 h 21.6
  #     hydro 5 f 22.4
  #     hydro 4 f 4
  #     hydro 5 p 9.6
  #     hydro 6 d 17.2
  #     hydro 3 p 5.2
  #     hydro 5 g 4.7
  #     hydro 6 s 7.6
  
  -----------------------------------------------------------------------
  Completed first pass over input file control.in .
  -----------------------------------------------------------------------
  
  
  -----------------------------------------------------------------------
  Parsing geometry.in (first pass over file, find array dimensions only).
  The contents of geometry.in will be repeated verbatim below
  unless switched off by setting 'verbatim_writeout .false.' .
  in the first line of geometry.in .
  -----------------------------------------------------------------------
  
  #
  # This is the geometry file that corresponds to the current relaxation step.
  # If you do not want this file to be written, set the "write_restart_geometry" flag to .false.
  #  aims_uuid : 7DEC8EB8-5D37-45FF-A9A8-456AB40ABE40
  #
    set_vacuum_level       103.288256
  lattice_vector     16.31232095      0.00000000      0.00000000
  lattice_vector     -8.15665875     14.12581815      0.00000000
  lattice_vector      0.00000000      0.00000000    103.32585319
  atom       0.00356253      0.94276549     51.66405236 Mo
  atom       1.65175717      1.89431104     53.31313902 Se
  atom       1.62534474      1.87901272     49.98813868 Se
  atom      -1.63142316      3.76686206     51.65779266 Mo
  atom       0.02503629      4.70969547     53.30667348 Se
  atom       0.00130769      4.69820268     49.98695960 Se
  atom      -3.27136037      6.58610601     51.63867716 Mo
  atom      -1.63152028      7.52870934     53.29765208 Se
  atom      -1.63150753      7.52859756     49.98064631 Se
  atom      -4.90268978      9.41113752     51.63871609 Mo
  atom      -3.26631134     10.35981726     53.29767651 Se
  atom      -3.26645011     10.35992044     49.98066856 Se
  atom      -6.52455532     12.24084948     51.65785116 Mo
  atom      -4.87969579     13.20378692     53.30670966 Se
  atom      -4.90153191     13.18895777     49.98702501 Se
  atom       3.27272818      0.96206913     51.63682367 Mo
  atom       4.95106885      1.98185594     53.25211893 Se
  atom       4.87802158      1.90483352     49.93121787 Se
  atom       1.65478343      3.76412254     51.63677660 Mo
  atom       3.37718640      4.70751603     53.25205673 Se
  atom       3.27403612      4.68279197     49.93122172 Se
  atom       0.00835336      6.58606756     51.63868303 Mo
  atom       1.66873720      7.51085612     53.27950747 Se
  atom       1.63154460      7.53238201     49.96711762 Se
  atom      -1.63161918      9.41617996     51.63923607 Mo
  atom       0.00306061     10.35980453     53.29766307 Se
  atom       0.00320353     10.35989211     49.98067011 Se
  atom      -3.26288501     12.25123012     51.63872779 Mo
  atom      -1.63173306     13.22664154     53.27953315 Se
  atom      -1.63173030     13.18365004     49.96714767 Se
  atom       6.52487116      0.98061538     51.59258448 Mo
  atom       8.09862306      1.98182855     53.25211225 Se
  atom       8.17164742      1.90485529     49.93120732 Se
  atom       4.97936067      3.81532796     51.53542621 Mo
  atom       6.52475361      4.70753398     49.81285493 Se
  atom       3.29685992      6.57104514     51.59258063 Mo
  atom       4.95092076      7.43321970     53.25206742 Se
  atom       4.92073432      7.53495986     49.93116322 Se
  atom       1.63950403      9.41114749     51.63870937 Mo
  atom       3.27283803     10.33495094     53.30670488 Se
  atom       3.27094052     10.36128524     49.98698948 Se
  atom      -0.00053455     12.25124375     51.63871217 Mo
  atom       1.61624839     13.20377193     53.30671549 Se
  atom       1.63811066     13.18896517     49.98700116 Se
  atom       9.77696487      0.96203501     51.63681243 Mo
  atom      11.39790358      1.89431416     53.31313528 Se
  atom      11.42433156      1.87900704     49.98812937 Se
  atom       8.07013040      3.81533789     51.53545855 Mo
  atom       9.67229464      4.70751110     53.25206492 Se
  atom       9.77544267      4.68279674     49.93121839 Se
  atom       6.52466278      6.49195915     51.53538393 Mo
  atom       8.09835057      7.43319474     53.25207756 Se
  atom       8.12856515      7.53497725     49.93117802 Se
  atom       4.90670513      9.39652663     51.63680014 Mo
  atom       6.52453752     10.33412186     53.31315061 Se
  atom       6.52453622     10.36463551     49.98812877 Se
  atom       3.26113897     12.24084261     51.65782850 Mo
  atom       4.88834395     13.18024405     53.32572155 Se
  atom       4.89567631     13.18445810     50.00324953 Se
  atom      13.04615024      0.94279473     51.66406043 Mo
  atom      14.68100201      1.88801691     53.32571348 Se
  atom      14.68101360      1.87954225     50.00324693 Se
  atom      11.39475380      3.76410762     51.63676881 Mo
  atom      13.02443106      4.70970211     53.30666969 Se
  atom      13.04818032      4.69821945     49.98696303 Se
  atom       9.75242575      6.57102757     51.59258335 Mo
  atom      11.38052705      7.51085210     53.27951616 Se
  atom      11.41772364      7.53237335     49.96711573 Se
  atom       8.14238967      9.39652112     51.63679997 Mo
  atom       9.77621824     10.33494202     53.30670843 Se
  atom       9.77816286     10.36127164     49.98700319 Se
  atom       6.52446371     12.23717231     51.66407244 Mo
  atom       8.16052064     13.18025584     53.32574501 Se
  atom       8.15322275     13.18447384     50.00325868 Se
  #
  # What follows is the current estimated Hessian matrix constructed by the BFGS algorithm.
  # This is NOT the true Hessian matrix of the system.
  # If you do not want this information here, switch it off using the "hessian_to_restart_geometry" keyword.
  #
  
  -----------------------------------------------------------------------
  Completed first pass over input file geometry.in .
  -----------------------------------------------------------------------
  

  Basic array size parameters:
  | Number of species                 :        4
  | Number of atoms                   :       74
  | Number of lattice vectors         :        3
  | Max. basis fn. angular momentum   :        4
  | Max. atomic/ionic basis occupied n:        6
  | Max. number of basis fn. types    :        3
  | Max. radial fns per species/type  :       14
  | Max. logarithmic grid size        :     1483
  | Max. radial integration grid size :      143
  | Max. angular integration grid size:      434
  | Max. angular grid division number :        8
  | Radial grid for Hartree potential :     1483
  | Number of spin channels           :        2

------------------------------------------------------------
          Reading file control.in.
------------------------------------------------------------

  XC: Using HSE-functional with OMEGA =  0.110000E+00 <units>.
  XC: For the actual units (bohr^-1 or Angstrom^-1), see below.
  hse_unit: Unit for the HSE06 hybrid functional screening parameter set to bohr^(-1).
  Spin treatment: Spin density functional theory - collinear spins.
  Initial spin moment per atom:   1.0000
  Charge =   0.000000E+00: Neutral system requested explicitly.
  Scalar relativistic treatment of kinetic energy: on-site free-atom approximation to ZORA.
  Geometry relaxation: Modified BFGS - TRM (trust radius method) for lattice optimization.
  Convergence accuracy for geometry relaxation: Maximum force <   0.100000E-02 eV/A.
  Occupation type: Gaussian broadening, width =   0.100000E+00 eV.
  Found k-point grid:         4         4         1
  Using dipole correction.
  Calculating non-self-consistent second-variational spin-orbit coupling after scf-cycle
  You have request a SOC run with spin-polarization.
  symmetry_reduced_k_grid will be turned off.
  Using libMBD for calculating MBD and TS energies
 
  Reading configuration options for species Se                  .
  | Found nuclear charge :  34.0000
  | Found atomic mass :    78.9600000000000      amu
  | Found l_max for Hartree potential  :   6
  | Found cutoff potl. onset [A], width [A], scale factor :    4.00000    2.00000    1.00000
  | Threshold for basis-dependent cutoff potential is   0.100000E-03
  | Found data for basic radial integration grid :    55 points, outermost radius =    7.000 A
  | Found multiplier for basic radial grid :   2
  | Found angular grid specification: user-specified.
  | Specified grid contains     5 separate shells.
  | Check grid settings after all constraints further below.
  | Found free-atom valence shell :  4 s   2.000
  | Found free-atom valence shell :  4 p   4.000
  | Found free-atom valence shell :  3 d  10.000
  | Found free-ion valence shell :  4 s   1.000
  | Found free-ion valence shell :  4 p   3.000
  | Found free-ion valence shell :  3 d  10.000
  | Found hydrogenic basis function :  3 d   4.300
  | Found hydrogenic basis function :  2 p   1.600
  | Found hydrogenic basis function :  4 f   7.200
  | Found ionic basis function :  4 s , default cutoff radius.
  Species Se                  : Missing cutoff potential type.
  Defaulting to exp(1/x)/(1-x)^2 type cutoff potential.
  Species Se: No 'logarithmic' tag. Using default grid for free atom:
  | Default logarithmic grid data [bohr] : 0.1000E-03 0.1000E+03 0.1012E+01
  | Will include ionic basis functions of  2.0-fold positive Se                   ion.
  Species Se: On-site basis accuracy parameter (for Gram-Schmidt orthonormalisation) not specified.
  Using default value basis_acc =  0.1000000E-03.
  Species Se                  : Using default innermost maximum threshold i_radial=  2 for radial functions.
  Species Se                  : Default cutoff onset for free atom density etc. : 0.40000000E+01 AA.
  Species Se                  : Basic radial grid will be enhanced according to radial_multiplier =   2, to contain   111 grid points.
 
  Reading configuration options for species S                   .
  | Found nuclear charge :  16.0000
  | Found atomic mass :    32.0650000000000      amu
  | Found l_max for Hartree potential  :   6
  | Found cutoff potl. onset [A], width [A], scale factor :    4.00000    2.00000    1.00000
  | Threshold for basis-dependent cutoff potential is   0.100000E-03
  | Found data for basic radial integration grid :    44 points, outermost radius =    7.000 A
  | Found multiplier for basic radial grid :   2
  | Found angular grid specification: user-specified.
  | Specified grid contains     5 separate shells.
  | Check grid settings after all constraints further below.
  | Found free-atom valence shell :  3 s   2.000
  | Found free-atom valence shell :  3 p   4.000
  | Found free-ion valence shell :  3 s   1.000
  | Found free-ion valence shell :  3 p   3.000
  | Found ionic basis function :  3 d , default cutoff radius.
  | Found hydrogenic basis function :  2 p   1.800
  | Found hydrogenic basis function :  4 f   7.000
  | Found ionic basis function :  3 s , default cutoff radius.
  | Found hydrogenic extended basis function :  5 g  10.800
  Species S                   : Missing cutoff potential type.
  Defaulting to exp(1/x)/(1-x)^2 type cutoff potential.
  Species S : No 'logarithmic' tag. Using default grid for free atom:
  | Default logarithmic grid data [bohr] : 0.1000E-03 0.1000E+03 0.1012E+01
  | Will include ionic basis functions of  2.0-fold positive S                    ion.
  Species S : On-site basis accuracy parameter (for Gram-Schmidt orthonormalisation) not specified.
  Using default value basis_acc =  0.1000000E-03.
  Species S                   : Using default innermost maximum threshold i_radial=  2 for radial functions.
  Species S                   : Default cutoff onset for free atom density etc. : 0.40000000E+01 AA.
  Species S                   : Basic radial grid will be enhanced according to radial_multiplier =   2, to contain    89 grid points.
 
  Reading configuration options for species Mo                  .
  | Found nuclear charge :  42.0000
  | Found atomic mass :    95.9400000000000      amu
  | Found l_max for Hartree potential  :   6
  | Found cutoff potl. onset [A], width [A], scale factor :    4.00000    2.00000    1.00000
  | Threshold for basis-dependent cutoff potential is   0.100000E-03
  | Found data for basic radial integration grid :    59 points, outermost radius =    7.000 A
  | Found multiplier for basic radial grid :   2
  | Found angular grid specification: user-specified.
  | Specified grid contains     6 separate shells.
  | Check grid settings after all constraints further below.
  | Found free-atom valence shell :  5 s   1.000
  | Found free-atom valence shell :  4 p   6.000
  | Found free-atom valence shell :  4 d   5.000
  | Found free-ion valence shell :  5 s   0.000
  | Found free-ion valence shell :  4 p   6.000
  | Found free-ion valence shell :  4 d   4.000
  | Found hydrogenic basis function :  4 f   8.400
  | Found hydrogenic basis function :  3 d   2.800
  | Found ionic basis function :  5 p , default cutoff radius.
  | Found hydrogenic extended basis function :  5 g  12.000
  | Found ionic basis function :  5 s , default cutoff radius.
  Species Mo                  : Missing cutoff potential type.
  Defaulting to exp(1/x)/(1-x)^2 type cutoff potential.
  Species Mo: No 'logarithmic' tag. Using default grid for free atom:
  | Default logarithmic grid data [bohr] : 0.1000E-03 0.1000E+03 0.1012E+01
  | Will include ionic basis functions of  2.0-fold positive Mo                   ion.
  Species Mo: On-site basis accuracy parameter (for Gram-Schmidt orthonormalisation) not specified.
  Using default value basis_acc =  0.1000000E-03.
  Species Mo                  : Using default innermost maximum threshold i_radial=  2 for radial functions.
  Species Mo                  : Default cutoff onset for free atom density etc. : 0.40000000E+01 AA.
  Species Mo                  : Basic radial grid will be enhanced according to radial_multiplier =   2, to contain   119 grid points.
 
  Reading configuration options for species W                   .
  | Found nuclear charge :  74.0000
  | Found atomic mass :    183.840000000000      amu
  | Found l_max for Hartree potential  :   6
  | Found cutoff potl. onset [A], width [A], scale factor :    4.00000    2.00000    1.00000
  | Threshold for basis-dependent cutoff potential is   0.100000E-03
  | Found data for basic radial integration grid :    71 points, outermost radius =    7.000 A
  | Found multiplier for basic radial grid :   2
  | Found angular grid specification: user-specified.
  | Specified grid contains     6 separate shells.
  | Check grid settings after all constraints further below.
  | Found free-atom valence shell :  6 s   2.000
  | Found free-atom valence shell :  5 p   6.000
  | Found free-atom valence shell :  5 d   4.000
  | Found free-atom valence shell :  4 f  14.000
  | Found free-ion valence shell :  6 s   1.000
  | Found free-ion valence shell :  5 p   6.000
  | Found free-ion valence shell :  5 d   3.000
  | Found free-ion valence shell :  4 f  14.000
  | Found hydrogenic basis function :  4 f   7.800
  | Found hydrogenic basis function :  4 d   5.800
  | Found ionic basis function :  6 p , default cutoff radius.
  | Found hydrogenic extended basis function :  5 g  12.400
  | Found ionic basis function :  6 s , default cutoff radius.
  Species W                   : Missing cutoff potential type.
  Defaulting to exp(1/x)/(1-x)^2 type cutoff potential.
  Species W : No 'logarithmic' tag. Using default grid for free atom:
  | Default logarithmic grid data [bohr] : 0.1000E-03 0.1000E+03 0.1012E+01
  | Will include ionic basis functions of  2.0-fold positive W                    ion.
  Species W : On-site basis accuracy parameter (for Gram-Schmidt orthonormalisation) not specified.
  Using default value basis_acc =  0.1000000E-03.
  Species W                   : Using default innermost maximum threshold i_radial=  2 for radial functions.
  Species W                   : Default cutoff onset for free atom density etc. : 0.40000000E+01 AA.
  Species W                   : Basic radial grid will be enhanced according to radial_multiplier =   2, to contain   143 grid points.
 
  Finished reading input file 'control.in'.
 
------------------------------------------------------------


------------------------------------------------------------
          Reading geometry description geometry.in.
------------------------------------------------------------
  Vacuum level in z-axis :   0.103288E+03
  | The smallest distance between any two atoms is         2.48017728 AA.
  | The first atom of this pair is atom number                     35 .
  | The second atom of this pair is atom number                    51 .
  | Wigner-Seitz cell of the first atom image           0     0     0 .
  | (The Wigner-Seitz cell of the second atom is 0 0 0  by definition.)

  Symmetry information by spglib:
  | Precision set to  0.1E-04
  | Number of Operations  : 1
  | Space group           : 1
  | International         : P1
  | Schoenflies           : C1^1
  Input structure read successfully.
  The structure contains       74 atoms,  and a total of       2716.000 electrons.

  Input geometry:
  | Unit cell:
  |       16.31232095        0.00000000        0.00000000
  |       -8.15665875       14.12581815        0.00000000
  |        0.00000000        0.00000000      103.32585319
  | Atomic structure:
  |       Atom                x [A]            y [A]            z [A]
  |    1: Species Mo            0.00356253        0.94276549       51.66405236
  |    2: Species Se            1.65175717        1.89431104       53.31313902
  |    3: Species Se            1.62534474        1.87901272       49.98813868
  |    4: Species Mo           -1.63142316        3.76686206       51.65779266
  |    5: Species Se            0.02503629        4.70969547       53.30667348
  |    6: Species Se            0.00130769        4.69820268       49.98695960
  |    7: Species Mo           -3.27136037        6.58610601       51.63867716
  |    8: Species Se           -1.63152028        7.52870934       53.29765208
  |    9: Species Se           -1.63150753        7.52859756       49.98064631
  |   10: Species Mo           -4.90268978        9.41113752       51.63871609
  |   11: Species Se           -3.26631134       10.35981726       53.29767651
  |   12: Species Se           -3.26645011       10.35992044       49.98066856
  |   13: Species Mo           -6.52455532       12.24084948       51.65785116
  |   14: Species Se           -4.87969579       13.20378692       53.30670966
  |   15: Species Se           -4.90153191       13.18895777       49.98702501
  |   16: Species Mo            3.27272818        0.96206913       51.63682367
  |   17: Species Se            4.95106885        1.98185594       53.25211893
  |   18: Species Se            4.87802158        1.90483352       49.93121787
  |   19: Species Mo            1.65478343        3.76412254       51.63677660
  |   20: Species Se            3.37718640        4.70751603       53.25205673
  |   21: Species Se            3.27403612        4.68279197       49.93122172
  |   22: Species Mo            0.00835336        6.58606756       51.63868303
  |   23: Species Se            1.66873720        7.51085612       53.27950747
  |   24: Species Se            1.63154460        7.53238201       49.96711762
  |   25: Species Mo           -1.63161918        9.41617996       51.63923607
  |   26: Species Se            0.00306061       10.35980453       53.29766307
  |   27: Species Se            0.00320353       10.35989211       49.98067011
  |   28: Species Mo           -3.26288501       12.25123012       51.63872779
  |   29: Species Se           -1.63173306       13.22664154       53.27953315
  |   30: Species Se           -1.63173030       13.18365004       49.96714767
  |   31: Species Mo            6.52487116        0.98061538       51.59258448
  |   32: Species Se            8.09862306        1.98182855       53.25211225
  |   33: Species Se            8.17164742        1.90485529       49.93120732
  |   34: Species Mo            4.97936067        3.81532796       51.53542621
  |   35: Species Se            6.52475361        4.70753398       49.81285493
  |   36: Species Mo            3.29685992        6.57104514       51.59258063
  |   37: Species Se            4.95092076        7.43321970       53.25206742
  |   38: Species Se            4.92073432        7.53495986       49.93116322
  |   39: Species Mo            1.63950403        9.41114749       51.63870937
  |   40: Species Se            3.27283803       10.33495094       53.30670488
  |   41: Species Se            3.27094052       10.36128524       49.98698948
  |   42: Species Mo           -0.00053455       12.25124375       51.63871217
  |   43: Species Se            1.61624839       13.20377193       53.30671549
  |   44: Species Se            1.63811066       13.18896517       49.98700116
  |   45: Species Mo            9.77696487        0.96203501       51.63681243
  |   46: Species Se           11.39790358        1.89431416       53.31313528
  |   47: Species Se           11.42433156        1.87900704       49.98812937
  |   48: Species Mo            8.07013040        3.81533789       51.53545855
  |   49: Species Se            9.67229464        4.70751110       53.25206492
  |   50: Species Se            9.77544267        4.68279674       49.93121839
  |   51: Species Mo            6.52466278        6.49195915       51.53538393
  |   52: Species Se            8.09835057        7.43319474       53.25207756
  |   53: Species Se            8.12856515        7.53497725       49.93117802
  |   54: Species Mo            4.90670513        9.39652663       51.63680014
  |   55: Species Se            6.52453752       10.33412186       53.31315061
  |   56: Species Se            6.52453622       10.36463551       49.98812877
  |   57: Species Mo            3.26113897       12.24084261       51.65782850
  |   58: Species Se            4.88834395       13.18024405       53.32572155
  |   59: Species Se            4.89567631       13.18445810       50.00324953
  |   60: Species Mo           13.04615024        0.94279473       51.66406043
  |   61: Species Se           14.68100201        1.88801691       53.32571348
  |   62: Species Se           14.68101360        1.87954225       50.00324693
  |   63: Species Mo           11.39475380        3.76410762       51.63676881
  |   64: Species Se           13.02443106        4.70970211       53.30666969
  |   65: Species Se           13.04818032        4.69821945       49.98696303
  |   66: Species Mo            9.75242575        6.57102757       51.59258335
  |   67: Species Se           11.38052705        7.51085210       53.27951616
  |   68: Species Se           11.41772364        7.53237335       49.96711573
  |   69: Species Mo            8.14238967        9.39652112       51.63679997
  |   70: Species Se            9.77621824       10.33494202       53.30670843
  |   71: Species Se            9.77816286       10.36127164       49.98700319
  |   72: Species Mo            6.52446371       12.23717231       51.66407244
  |   73: Species Se            8.16052064       13.18025584       53.32574501
  |   74: Species Se            8.15322275       13.18447384       50.00325868

  Lattice parameters for 3D lattice (in Angstroms) :    16.312321   16.311647  103.325853
  Angle(s) between unit vectors (in degrees)       :    90.000000   90.000000  120.003388


  Quantities derived from the lattice vectors:
  | Reciprocal lattice vector 1:  0.385180  0.222414  0.000000
  | Reciprocal lattice vector 2:  0.000000  0.444802  0.000000
  | Reciprocal lattice vector 3:  0.000000  0.000000  0.060809
  | Unit cell volume                               :   0.238088E+05  A^3

  Fractional coordinates:
                         L1                L2                L3
       atom_frac         0.03359073        0.06674059        0.50001090  Mo
       atom_frac         0.16831373        0.13410275        0.51597095  Se
       atom_frac         0.16615302        0.13301974        0.48379120  Se
       atom_frac         0.03332896        0.26666505        0.49995031  Mo
       atom_frac         0.16825022        0.33341046        0.51590838  Se
       atom_frac         0.16638875        0.33259685        0.48377979  Se
       atom_frac         0.03259187        0.46624599        0.49976531  Mo
       atom_frac         0.16648616        0.53297510        0.51582107  Se
       atom_frac         0.16648299        0.53296719        0.48371869  Se
       atom_frac         0.03258734        0.66623663        0.49976569  Mo
       atom_frac         0.16648451        0.73339591        0.51582131  Se
       atom_frac         0.16647966        0.73340321        0.48371890  Se
       atom_frac         0.03332865        0.86655862        0.49995088  Mo
       atom_frac         0.16825045        0.93472723        0.51590873  Se
       atom_frac         0.16638689        0.93367744        0.48378042  Se
       atom_frac         0.23468487        0.06810714        0.49974737  Mo
       atom_frac         0.37367155        0.14030026        0.51538039  Se
       atom_frac         0.36646704        0.13484766        0.48324032  Se
       atom_frac         0.23468747        0.26647112        0.49974692  Mo
       atom_frac         0.37367112        0.33325617        0.51537979  Se
       atom_frac         0.36647247        0.33150589        0.48324035  Se
       atom_frac         0.23364796        0.46624326        0.49976537  Mo
       atom_frac         0.36817104        0.53171123        0.51564546  Se
       atom_frac         0.36665299        0.53323510        0.48358776  Se
       atom_frac         0.23329343        0.66659360        0.49977072  Mo
       atom_frac         0.36690753        0.73339501        0.51582118  Se
       atom_frac         0.36691939        0.73340121        0.48371892  Se
       atom_frac         0.23364744        0.86729349        0.49976580  Mo
       atom_frac         0.36817047        0.93634517        0.51564571  Se
       atom_frac         0.36664882        0.93330170        0.48358805  Se
       atom_frac         0.43470865        0.06942008        0.49931922  Mo
       atom_frac         0.56662621        0.14029832        0.51538033  Se
       atom_frac         0.56837812        0.13484920        0.48324021  Se
       atom_frac         0.44030780        0.27009607        0.49876604  Mo
       atom_frac         0.56662819        0.33325744        0.48209478  Se
       atom_frac         0.43471268        0.46517979        0.49931918  Mo
       atom_frac         0.56663171        0.52621516        0.51537990  Se
       atom_frac         0.56838261        0.53341759        0.48323979  Se
       atom_frac         0.43364612        0.66623734        0.49976562  Mo
       atom_frac         0.56647608        0.73163556        0.51590868  Se
       atom_frac         0.56729195        0.73349983        0.48378008  Se
       atom_frac         0.43364095        0.86729445        0.49976565  Mo
       atom_frac         0.56647309        0.93472617        0.51590879  Se
       atom_frac         0.56728918        0.93367797        0.48378019  Se
       atom_frac         0.63341519        0.06810473        0.49974726  Mo
       atom_frac         0.76578531        0.13410297        0.51597092  Se
       atom_frac         0.76686359        0.13301934        0.48379111  Se
       atom_frac         0.62978270        0.27009677        0.49876635  Mo
       atom_frac         0.75958220        0.33325582        0.51537987  Se
       atom_frac         0.76503067        0.33150623        0.48324032  Se
       atom_frac         0.62978831        0.45958111        0.49876563  Mo
       atom_frac         0.75957883        0.52621340        0.51537999  Se
       atom_frac         0.76503402        0.53341882        0.48323993  Se
       atom_frac         0.63341895        0.66520229        0.49974715  Mo
       atom_frac         0.76578682        0.73157687        0.51597107  Se
       atom_frac         0.76686687        0.73373701        0.48379111  Se
       atom_frac         0.63322430        0.86655813        0.49995066  Mo
       atom_frac         0.76623067        0.93306058        0.51609273  Se
       atom_frac         0.76682934        0.93335890        0.48393745  Se
       atom_frac         0.83314615        0.06674266        0.50001097  Mo
       atom_frac         0.96682734        0.13365717        0.51609265  Se
       atom_frac         0.96652807        0.13305723        0.48393742  Se
       atom_frac         0.83177981        0.26647006        0.49974684  Mo
       atom_frac         0.96515697        0.33341093        0.51590834  Se
       atom_frac         0.96620641        0.33259804        0.48377982  Se
       atom_frac         0.83045990        0.46517855        0.49931921  Mo
       atom_frac         0.96353620        0.53171094        0.51564555  Se
       atom_frac         0.96657829        0.53323448        0.48358774  Se
       atom_frac         0.83177707        0.66520190        0.49974714  Mo
       atom_frac         0.96515479        0.73163493        0.51590872  Se
       atom_frac         0.96620603        0.73349887        0.48378021  Se
       atom_frac         0.83314713        0.86629830        0.50001109  Mo
       atom_frac         0.96682650        0.93306141        0.51609296  Se
       atom_frac         0.96652843        0.93336001        0.48393753  Se

  Initial moments and charges:
  |  Atom   Moment         Charge        Species
  |     1   0.100000E+01   0.000000E+00   Mo
  |     2   0.100000E+01   0.000000E+00   Se
  |     3   0.100000E+01   0.000000E+00   Se
  |     4   0.100000E+01   0.000000E+00   Mo
  |     5   0.100000E+01   0.000000E+00   Se
  |     6   0.100000E+01   0.000000E+00   Se
  |     7   0.100000E+01   0.000000E+00   Mo
  |     8   0.100000E+01   0.000000E+00   Se
  |     9   0.100000E+01   0.000000E+00   Se
  |    10   0.100000E+01   0.000000E+00   Mo
  |    11   0.100000E+01   0.000000E+00   Se
  |    12   0.100000E+01   0.000000E+00   Se
  |    13   0.100000E+01   0.000000E+00   Mo
  |    14   0.100000E+01   0.000000E+00   Se
  |    15   0.100000E+01   0.000000E+00   Se
  |    16   0.100000E+01   0.000000E+00   Mo
  |    17   0.100000E+01   0.000000E+00   Se
  |    18   0.100000E+01   0.000000E+00   Se
  |    19   0.100000E+01   0.000000E+00   Mo
  |    20   0.100000E+01   0.000000E+00   Se
  |    21   0.100000E+01   0.000000E+00   Se
  |    22   0.100000E+01   0.000000E+00   Mo
  |    23   0.100000E+01   0.000000E+00   Se
  |    24   0.100000E+01   0.000000E+00   Se
  |    25   0.100000E+01   0.000000E+00   Mo
  |    26   0.100000E+01   0.000000E+00   Se
  |    27   0.100000E+01   0.000000E+00   Se
  |    28   0.100000E+01   0.000000E+00   Mo
  |    29   0.100000E+01   0.000000E+00   Se
  |    30   0.100000E+01   0.000000E+00   Se
  |    31   0.100000E+01   0.000000E+00   Mo
  |    32   0.100000E+01   0.000000E+00   Se
  |    33   0.100000E+01   0.000000E+00   Se
  |    34   0.100000E+01   0.000000E+00   Mo
  |    35   0.100000E+01   0.000000E+00   Se
  |    36   0.100000E+01   0.000000E+00   Mo
  |    37   0.100000E+01   0.000000E+00   Se
  |    38   0.100000E+01   0.000000E+00   Se
  |    39   0.100000E+01   0.000000E+00   Mo
  |    40   0.100000E+01   0.000000E+00   Se
  |    41   0.100000E+01   0.000000E+00   Se
  |    42   0.100000E+01   0.000000E+00   Mo
  |    43   0.100000E+01   0.000000E+00   Se
  |    44   0.100000E+01   0.000000E+00   Se
  |    45   0.100000E+01   0.000000E+00   Mo
  |    46   0.100000E+01   0.000000E+00   Se
  |    47   0.100000E+01   0.000000E+00   Se
  |    48   0.100000E+01   0.000000E+00   Mo
  |    49   0.100000E+01   0.000000E+00   Se
  |    50   0.100000E+01   0.000000E+00   Se
  |    51   0.100000E+01   0.000000E+00   Mo
  |    52   0.100000E+01   0.000000E+00   Se
  |    53   0.100000E+01   0.000000E+00   Se
  |    54   0.100000E+01   0.000000E+00   Mo
  |    55   0.100000E+01   0.000000E+00   Se
  |    56   0.100000E+01   0.000000E+00   Se
  |    57   0.100000E+01   0.000000E+00   Mo
  |    58   0.100000E+01   0.000000E+00   Se
  |    59   0.100000E+01   0.000000E+00   Se
  |    60   0.100000E+01   0.000000E+00   Mo
  |    61   0.100000E+01   0.000000E+00   Se
  |    62   0.100000E+01   0.000000E+00   Se
  |    63   0.100000E+01   0.000000E+00   Mo
  |    64   0.100000E+01   0.000000E+00   Se
  |    65   0.100000E+01   0.000000E+00   Se
  |    66   0.100000E+01   0.000000E+00   Mo
  |    67   0.100000E+01   0.000000E+00   Se
  |    68   0.100000E+01   0.000000E+00   Se
  |    69   0.100000E+01   0.000000E+00   Mo
  |    70   0.100000E+01   0.000000E+00   Se
  |    71   0.100000E+01   0.000000E+00   Se
  |    72   0.100000E+01   0.000000E+00   Mo
  |    73   0.100000E+01   0.000000E+00   Se
  |    74   0.100000E+01   0.000000E+00   Se

 
  Finished reading input file 'control.in'.
 

------------------------------------------------------------
          Reading geometry description geometry.in.
------------------------------------------------------------
 
  Consistency checks for stacksize environment parameter are next.
 
  | Maximum stacksize for task 0: unlimited
  | Maximum stacksize for task 1: unlimited
  | Maximum stacksize for task 2: unlimited
  | Maximum stacksize for task 3: unlimited
  | Maximum stacksize for task 4: unlimited
  | Maximum stacksize for task 5: unlimited
  | Maximum stacksize for task 6: unlimited
  | Maximum stacksize for task 7: unlimited
  | Maximum stacksize for task 8: unlimited
  | Maximum stacksize for task 9: unlimited
  | Maximum stacksize for task 10: unlimited
  | Maximum stacksize for task 11: unlimited
  | Maximum stacksize for task 12: unlimited
  | Maximum stacksize for task 13: unlimited
  | Maximum stacksize for task 14: unlimited
  | Maximum stacksize for task 15: unlimited
  | Maximum stacksize for task 16: unlimited
  | Maximum stacksize for task 17: unlimited
  | Maximum stacksize for task 18: unlimited
  | Maximum stacksize for task 19: unlimited
  | Maximum stacksize for task 20: unlimited
  | Maximum stacksize for task 21: unlimited
  | Maximum stacksize for task 22: unlimited
  | Maximum stacksize for task 23: unlimited
  | Maximum stacksize for task 24: unlimited
  | Maximum stacksize for task 25: unlimited
  | Maximum stacksize for task 26: unlimited
  | Maximum stacksize for task 27: unlimited
  | Maximum stacksize for task 28: unlimited
  | Maximum stacksize for task 29: unlimited
  | Maximum stacksize for task 30: unlimited
  | Maximum stacksize for task 31: unlimited
  | Maximum stacksize for task 32: unlimited
  | Maximum stacksize for task 33: unlimited
  | Maximum stacksize for task 34: unlimited
  | Maximum stacksize for task 35: unlimited
  | Maximum stacksize for task 36: unlimited
  | Maximum stacksize for task 37: unlimited
  | Maximum stacksize for task 38: unlimited
  | Maximum stacksize for task 39: unlimited
  | Maximum stacksize for task 40: unlimited
  | Maximum stacksize for task 41: unlimited
  | Maximum stacksize for task 42: unlimited
  | Maximum stacksize for task 43: unlimited
  | Maximum stacksize for task 44: unlimited
  | Maximum stacksize for task 45: unlimited
  | Maximum stacksize for task 46: unlimited
  | Maximum stacksize for task 47: unlimited
  | Maximum stacksize for task 48: unlimited
  | Maximum stacksize for task 49: unlimited
  | Maximum stacksize for task 50: unlimited
  | Maximum stacksize for task 51: unlimited
  | Maximum stacksize for task 52: unlimited
  | Maximum stacksize for task 53: unlimited
  | Maximum stacksize for task 54: unlimited
  | Maximum stacksize for task 55: unlimited
  | Maximum stacksize for task 56: unlimited
  | Maximum stacksize for task 57: unlimited
  | Maximum stacksize for task 58: unlimited
  | Maximum stacksize for task 59: unlimited
  | Maximum stacksize for task 60: unlimited
  | Maximum stacksize for task 61: unlimited
  | Maximum stacksize for task 62: unlimited
  | Maximum stacksize for task 63: unlimited
  | Maximum stacksize for task 64: unlimited
  | Maximum stacksize for task 65: unlimited
  | Maximum stacksize for task 66: unlimited
  | Maximum stacksize for task 67: unlimited
  | Maximum stacksize for task 68: unlimited
  | Maximum stacksize for task 69: unlimited
  | Maximum stacksize for task 70: unlimited
  | Maximum stacksize for task 71: unlimited
  | Maximum stacksize for task 72: unlimited
  | Maximum stacksize for task 73: unlimited
  | Maximum stacksize for task 74: unlimited
  | Maximum stacksize for task 75: unlimited
  | Maximum stacksize for task 76: unlimited
  | Maximum stacksize for task 77: unlimited
  | Maximum stacksize for task 78: unlimited
  | Maximum stacksize for task 79: unlimited
  | Maximum stacksize for task 80: unlimited
  | Maximum stacksize for task 81: unlimited
  | Maximum stacksize for task 82: unlimited
  | Maximum stacksize for task 83: unlimited
  | Maximum stacksize for task 84: unlimited
  | Maximum stacksize for task 85: unlimited
  | Maximum stacksize for task 86: unlimited
  | Maximum stacksize for task 87: unlimited
  | Maximum stacksize for task 88: unlimited
  | Maximum stacksize for task 89: unlimited
  | Maximum stacksize for task 90: unlimited
  | Maximum stacksize for task 91: unlimited
  | Maximum stacksize for task 92: unlimited
  | Maximum stacksize for task 93: unlimited
  | Maximum stacksize for task 94: unlimited
  | Maximum stacksize for task 95: unlimited
  | Maximum stacksize for task 96: unlimited
  | Maximum stacksize for task 97: unlimited
  | Maximum stacksize for task 98: unlimited
  | Maximum stacksize for task 99: unlimited
  | Maximum stacksize for task 100: unlimited
  | Maximum stacksize for task 101: unlimited
  | Maximum stacksize for task 102: unlimited
  | Maximum stacksize for task 103: unlimited
  | Maximum stacksize for task 104: unlimited
  | Maximum stacksize for task 105: unlimited
  | Maximum stacksize for task 106: unlimited
  | Maximum stacksize for task 107: unlimited
  | Maximum stacksize for task 108: unlimited
  | Maximum stacksize for task 109: unlimited
  | Maximum stacksize for task 110: unlimited
  | Maximum stacksize for task 111: unlimited
  | Maximum stacksize for task 112: unlimited
  | Maximum stacksize for task 113: unlimited
  | Maximum stacksize for task 114: unlimited
  | Maximum stacksize for task 115: unlimited
  | Maximum stacksize for task 116: unlimited
  | Maximum stacksize for task 117: unlimited
  | Maximum stacksize for task 118: unlimited
  | Maximum stacksize for task 119: unlimited
  | Maximum stacksize for task 120: unlimited
  | Maximum stacksize for task 121: unlimited
  | Maximum stacksize for task 122: unlimited
  | Maximum stacksize for task 123: unlimited
  | Maximum stacksize for task 124: unlimited
  | Maximum stacksize for task 125: unlimited
  | Maximum stacksize for task 126: unlimited
  | Maximum stacksize for task 127: unlimited
  | Maximum stacksize for task 128: unlimited
  | Maximum stacksize for task 129: unlimited
  | Maximum stacksize for task 130: unlimited
  | Maximum stacksize for task 131: unlimited
  | Maximum stacksize for task 132: unlimited
  | Maximum stacksize for task 133: unlimited
  | Maximum stacksize for task 134: unlimited
  | Maximum stacksize for task 135: unlimited
  | Maximum stacksize for task 136: unlimited
  | Maximum stacksize for task 137: unlimited
  | Maximum stacksize for task 138: unlimited
  | Maximum stacksize for task 139: unlimited
  | Maximum stacksize for task 140: unlimited
  | Maximum stacksize for task 141: unlimited
  | Maximum stacksize for task 142: unlimited
  | Maximum stacksize for task 143: unlimited
  | Maximum stacksize for task 144: unlimited
  | Maximum stacksize for task 145: unlimited
  | Maximum stacksize for task 146: unlimited
  | Maximum stacksize for task 147: unlimited
  | Maximum stacksize for task 148: unlimited
  | Maximum stacksize for task 149: unlimited
  | Maximum stacksize for task 150: unlimited
  | Maximum stacksize for task 151: unlimited
  | Maximum stacksize for task 152: unlimited
  | Maximum stacksize for task 153: unlimited
  | Maximum stacksize for task 154: unlimited
  | Maximum stacksize for task 155: unlimited
  | Maximum stacksize for task 156: unlimited
  | Maximum stacksize for task 157: unlimited
  | Maximum stacksize for task 158: unlimited
  | Maximum stacksize for task 159: unlimited
  | Maximum stacksize for task 160: unlimited
  | Maximum stacksize for task 161: unlimited
  | Maximum stacksize for task 162: unlimited
  | Maximum stacksize for task 163: unlimited
  | Maximum stacksize for task 164: unlimited
  | Maximum stacksize for task 165: unlimited
  | Maximum stacksize for task 166: unlimited
  | Maximum stacksize for task 167: unlimited
  | Maximum stacksize for task 168: unlimited
  | Maximum stacksize for task 169: unlimited
  | Maximum stacksize for task 170: unlimited
  | Maximum stacksize for task 171: unlimited
  | Maximum stacksize for task 172: unlimited
  | Maximum stacksize for task 173: unlimited
  | Maximum stacksize for task 174: unlimited
  | Maximum stacksize for task 175: unlimited
  | Maximum stacksize for task 176: unlimited
  | Maximum stacksize for task 177: unlimited
  | Maximum stacksize for task 178: unlimited
  | Maximum stacksize for task 179: unlimited
  | Maximum stacksize for task 180: unlimited
  | Maximum stacksize for task 181: unlimited
  | Maximum stacksize for task 182: unlimited
  | Maximum stacksize for task 183: unlimited
  | Maximum stacksize for task 184: unlimited
  | Maximum stacksize for task 185: unlimited
  | Maximum stacksize for task 186: unlimited
  | Maximum stacksize for task 187: unlimited
  | Maximum stacksize for task 188: unlimited
  | Maximum stacksize for task 189: unlimited
  | Maximum stacksize for task 190: unlimited
  | Maximum stacksize for task 191: unlimited
  | Maximum stacksize for task 192: unlimited
  | Maximum stacksize for task 193: unlimited
  | Maximum stacksize for task 194: unlimited
  | Maximum stacksize for task 195: unlimited
  | Maximum stacksize for task 196: unlimited
  | Maximum stacksize for task 197: unlimited
  | Maximum stacksize for task 198: unlimited
  | Maximum stacksize for task 199: unlimited
  | Maximum stacksize for task 200: unlimited
  | Maximum stacksize for task 201: unlimited
  | Maximum stacksize for task 202: unlimited
  | Maximum stacksize for task 203: unlimited
  | Maximum stacksize for task 204: unlimited
  | Maximum stacksize for task 205: unlimited
  | Maximum stacksize for task 206: unlimited
  | Maximum stacksize for task 207: unlimited
  | Maximum stacksize for task 208: unlimited
  | Maximum stacksize for task 209: unlimited
  | Maximum stacksize for task 210: unlimited
  | Maximum stacksize for task 211: unlimited
  | Maximum stacksize for task 212: unlimited
  | Maximum stacksize for task 213: unlimited
  | Maximum stacksize for task 214: unlimited
  | Maximum stacksize for task 215: unlimited
  | Current stacksize for task 0: unlimited
  | Current stacksize for task 1: unlimited
  | Current stacksize for task 2: unlimited
  | Current stacksize for task 3: unlimited
  | Current stacksize for task 4: unlimited
  | Current stacksize for task 5: unlimited
  | Current stacksize for task 6: unlimited
  | Current stacksize for task 7: unlimited
  | Current stacksize for task 8: unlimited
  | Current stacksize for task 9: unlimited
  | Current stacksize for task 10: unlimited
  | Current stacksize for task 11: unlimited
  | Current stacksize for task 12: unlimited
  | Current stacksize for task 13: unlimited
  | Current stacksize for task 14: unlimited
  | Current stacksize for task 15: unlimited
  | Current stacksize for task 16: unlimited
  | Current stacksize for task 17: unlimited
  | Current stacksize for task 18: unlimited
  | Current stacksize for task 19: unlimited
  | Current stacksize for task 20: unlimited
  | Current stacksize for task 21: unlimited
  | Current stacksize for task 22: unlimited
  | Current stacksize for task 23: unlimited
  | Current stacksize for task 24: unlimited
  | Current stacksize for task 25: unlimited
  | Current stacksize for task 26: unlimited
  | Current stacksize for task 27: unlimited
  | Current stacksize for task 28: unlimited
  | Current stacksize for task 29: unlimited
  | Current stacksize for task 30: unlimited
  | Current stacksize for task 31: unlimited
  | Current stacksize for task 32: unlimited
  | Current stacksize for task 33: unlimited
  | Current stacksize for task 34: unlimited
  | Current stacksize for task 35: unlimited
  | Current stacksize for task 36: unlimited
  | Current stacksize for task 37: unlimited
  | Current stacksize for task 38: unlimited
  | Current stacksize for task 39: unlimited
  | Current stacksize for task 40: unlimited
  | Current stacksize for task 41: unlimited
  | Current stacksize for task 42: unlimited
  | Current stacksize for task 43: unlimited
  | Current stacksize for task 44: unlimited
  | Current stacksize for task 45: unlimited
  | Current stacksize for task 46: unlimited
  | Current stacksize for task 47: unlimited
  | Current stacksize for task 48: unlimited
  | Current stacksize for task 49: unlimited
  | Current stacksize for task 50: unlimited
  | Current stacksize for task 51: unlimited
  | Current stacksize for task 52: unlimited
  | Current stacksize for task 53: unlimited
  | Current stacksize for task 54: unlimited
  | Current stacksize for task 55: unlimited
  | Current stacksize for task 56: unlimited
  | Current stacksize for task 57: unlimited
  | Current stacksize for task 58: unlimited
  | Current stacksize for task 59: unlimited
  | Current stacksize for task 60: unlimited
  | Current stacksize for task 61: unlimited
  | Current stacksize for task 62: unlimited
  | Current stacksize for task 63: unlimited
  | Current stacksize for task 64: unlimited
  | Current stacksize for task 65: unlimited
  | Current stacksize for task 66: unlimited
  | Current stacksize for task 67: unlimited
  | Current stacksize for task 68: unlimited
  | Current stacksize for task 69: unlimited
  | Current stacksize for task 70: unlimited
  | Current stacksize for task 71: unlimited
  | Current stacksize for task 72: unlimited
  | Current stacksize for task 73: unlimited
  | Current stacksize for task 74: unlimited
  | Current stacksize for task 75: unlimited
  | Current stacksize for task 76: unlimited
  | Current stacksize for task 77: unlimited
  | Current stacksize for task 78: unlimited
  | Current stacksize for task 79: unlimited
  | Current stacksize for task 80: unlimited
  | Current stacksize for task 81: unlimited
  | Current stacksize for task 82: unlimited
  | Current stacksize for task 83: unlimited
  | Current stacksize for task 84: unlimited
  | Current stacksize for task 85: unlimited
  | Current stacksize for task 86: unlimited
  | Current stacksize for task 87: unlimited
  | Current stacksize for task 88: unlimited
  | Current stacksize for task 89: unlimited
  | Current stacksize for task 90: unlimited
  | Current stacksize for task 91: unlimited
  | Current stacksize for task 92: unlimited
  | Current stacksize for task 93: unlimited
  | Current stacksize for task 94: unlimited
  | Current stacksize for task 95: unlimited
  | Current stacksize for task 96: unlimited
  | Current stacksize for task 97: unlimited
  | Current stacksize for task 98: unlimited
  | Current stacksize for task 99: unlimited
  | Current stacksize for task 100: unlimited
  | Current stacksize for task 101: unlimited
  | Current stacksize for task 102: unlimited
  | Current stacksize for task 103: unlimited
  | Current stacksize for task 104: unlimited
  | Current stacksize for task 105: unlimited
  | Current stacksize for task 106: unlimited
  | Current stacksize for task 107: unlimited
  | Current stacksize for task 108: unlimited
  | Current stacksize for task 109: unlimited
  | Current stacksize for task 110: unlimited
  | Current stacksize for task 111: unlimited
  | Current stacksize for task 112: unlimited
  | Current stacksize for task 113: unlimited
  | Current stacksize for task 114: unlimited
  | Current stacksize for task 115: unlimited
  | Current stacksize for task 116: unlimited
  | Current stacksize for task 117: unlimited
  | Current stacksize for task 118: unlimited
  | Current stacksize for task 119: unlimited
  | Current stacksize for task 120: unlimited
  | Current stacksize for task 121: unlimited
  | Current stacksize for task 122: unlimited
  | Current stacksize for task 123: unlimited
  | Current stacksize for task 124: unlimited
  | Current stacksize for task 125: unlimited
  | Current stacksize for task 126: unlimited
  | Current stacksize for task 127: unlimited
  | Current stacksize for task 128: unlimited
  | Current stacksize for task 129: unlimited
  | Current stacksize for task 130: unlimited
  | Current stacksize for task 131: unlimited
  | Current stacksize for task 132: unlimited
  | Current stacksize for task 133: unlimited
  | Current stacksize for task 134: unlimited
  | Current stacksize for task 135: unlimited
  | Current stacksize for task 136: unlimited
  | Current stacksize for task 137: unlimited
  | Current stacksize for task 138: unlimited
  | Current stacksize for task 139: unlimited
  | Current stacksize for task 140: unlimited
  | Current stacksize for task 141: unlimited
  | Current stacksize for task 142: unlimited
  | Current stacksize for task 143: unlimited
  | Current stacksize for task 144: unlimited
  | Current stacksize for task 145: unlimited
  | Current stacksize for task 146: unlimited
  | Current stacksize for task 147: unlimited
  | Current stacksize for task 148: unlimited
  | Current stacksize for task 149: unlimited
  | Current stacksize for task 150: unlimited
  | Current stacksize for task 151: unlimited
  | Current stacksize for task 152: unlimited
  | Current stacksize for task 153: unlimited
  | Current stacksize for task 154: unlimited
  | Current stacksize for task 155: unlimited
  | Current stacksize for task 156: unlimited
  | Current stacksize for task 157: unlimited
  | Current stacksize for task 158: unlimited
  | Current stacksize for task 159: unlimited
  | Current stacksize for task 160: unlimited
  | Current stacksize for task 161: unlimited
  | Current stacksize for task 162: unlimited
  | Current stacksize for task 163: unlimited
  | Current stacksize for task 164: unlimited
  | Current stacksize for task 165: unlimited
  | Current stacksize for task 166: unlimited
  | Current stacksize for task 167: unlimited
  | Current stacksize for task 168: unlimited
  | Current stacksize for task 169: unlimited
  | Current stacksize for task 170: unlimited
  | Current stacksize for task 171: unlimited
  | Current stacksize for task 172: unlimited
  | Current stacksize for task 173: unlimited
  | Current stacksize for task 174: unlimited
  | Current stacksize for task 175: unlimited
  | Current stacksize for task 176: unlimited
  | Current stacksize for task 177: unlimited
  | Current stacksize for task 178: unlimited
  | Current stacksize for task 179: unlimited
  | Current stacksize for task 180: unlimited
  | Current stacksize for task 181: unlimited
  | Current stacksize for task 182: unlimited
  | Current stacksize for task 183: unlimited
  | Current stacksize for task 184: unlimited
  | Current stacksize for task 185: unlimited
  | Current stacksize for task 186: unlimited
  | Current stacksize for task 187: unlimited
  | Current stacksize for task 188: unlimited
  | Current stacksize for task 189: unlimited
  | Current stacksize for task 190: unlimited
  | Current stacksize for task 191: unlimited
  | Current stacksize for task 192: unlimited
  | Current stacksize for task 193: unlimited
  | Current stacksize for task 194: unlimited
  | Current stacksize for task 195: unlimited
  | Current stacksize for task 196: unlimited
  | Current stacksize for task 197: unlimited
  | Current stacksize for task 198: unlimited
  | Current stacksize for task 199: unlimited
  | Current stacksize for task 200: unlimited
  | Current stacksize for task 201: unlimited
  | Current stacksize for task 202: unlimited
  | Current stacksize for task 203: unlimited
  | Current stacksize for task 204: unlimited
  | Current stacksize for task 205: unlimited
  | Current stacksize for task 206: unlimited
  | Current stacksize for task 207: unlimited
  | Current stacksize for task 208: unlimited
  | Current stacksize for task 209: unlimited
  | Current stacksize for task 210: unlimited
  | Current stacksize for task 211: unlimited
  | Current stacksize for task 212: unlimited
  | Current stacksize for task 213: unlimited
  | Current stacksize for task 214: unlimited
  | Current stacksize for task 215: unlimited
 
  Consistency checks for the contents of control.in are next.
 
  HSE06 screening parameters: omega_HF  =      0.11000000 bohr^-1, and
                              omega_PBE =      0.11000000 bohr^-1.
  MPI_IN_PLACE appears to work with this MPI implementation.
  | Keeping use_mpi_in_place .true. (see manual).
  Explicit treatment of the Coulomb operator is needed, but the RI method is not specified.
  Coulomb operator: Defaulting to 'LVL fast' resolution of identity - RI_type = LVL_fast
  Species Se: Using default value for prodbas_acc =   1.000000E-04.
  Species Se: Using default value max_l_prodbas =    20.
  Species S: Using default value for prodbas_acc =   1.000000E-04.
  Species S: Using default value max_l_prodbas =    20.
  Species Mo: Using default value for prodbas_acc =   1.000000E-04.
  Species Mo: Using default value max_l_prodbas =    20.
  Species W: Using default value for prodbas_acc =   1.000000E-04.
  Species W: Using default value max_l_prodbas =    20.
  Target number of points in a grid batch is not set. Defaulting to  100
  Method for grid partitioning is not set. Defaulting to parallel hash+maxmin partitioning.
  Batch size limit is not set. Defaulting to    200
  By default, will store active basis functions for each batch.
  If in need of memory, prune_basis_once .false. can be used to disable this option.
  communication_type for Hartree potential was not specified.
  Defaulting to calc_hartree .
  Defaulting to Pulay charge density mixer.
  Pulay mixer: Number of relevant iterations not set.
  Defaulting to    8 iterations.
  Pulay mixer: Number of initial linear mixing iterations not set.
  Defaulting to    0 iterations.
  Work space size for distributed Hartree potential not set.
  Defaulting to   0.200000E+03 MB.
  Mixing parameter for charge density mixing has not been set.
  Using default: charge_mix_param =     0.0500.
  The mixing parameter will be adjusted in iteration number     2 of the first full s.c.f. cycle only.
  Mixing parameter for spin density mixing has not been set.
  Using charge_mix_param as default:     0.0500.
  Algorithm-dependent basis array size parameters:
  | n_max_pulay                         :        8
  Maximum number of self-consistency iterations not provided.
  Presetting  1000 iterations.
  Presetting      1001 iterations before the initial mixing cycle
  is restarted anyway using the sc_init_iter criterion / keyword.
  Presetting a factor      1.000 between actual scf density residual
[...]
   3464       0.00000                      12.985240          12.983425             0.000007
   3465       0.00000                      12.985858          13.000660             0.017235
   3466       0.00000                      12.985866          13.000668             0.000007
   3467       0.00000                      13.023769          13.025622             0.024954
   3468       0.00000                      13.023778          13.025630             0.000008
   3469       0.00000                      13.277635          13.291629             0.265999
   3470       0.00000                      13.277643          13.291636             0.000007
   3471       0.00000                      13.277995          13.297191             0.005555
   3472       0.00000                      13.278003          13.297198             0.000008
   3473       0.00000                      13.363496          13.376075             0.078876
   3474       0.00000                      13.363503          13.376082             0.000007
   3475       0.00000                      13.465190          13.463010             0.086929
   3476       0.00000                      13.465198          13.463017             0.000007
   3477       0.00000                      13.472808          13.472335             0.009318
   3478       0.00000                      13.472815          13.472343             0.000007
   3479       0.00000                      13.473747          13.488186             0.015843
   3480       0.00000                      13.473754          13.488193             0.000007
   3481       0.00000                      13.568164          13.568950             0.080757
   3482       0.00000                      13.568173          13.568960             0.000009
   3483       0.00000                      13.568554          13.578562             0.009602
   3484       0.00000                      13.568564          13.578572             0.000010
   3485       0.00000                      13.607150          13.621131             0.042560
   3486       0.00000                      13.607159          13.621140             0.000008
   3487       0.00000                      13.739185          13.738636             0.117497
   3488       0.00000                      13.739194          13.738645             0.000009
   3489       0.00000                      13.739338          13.751463             0.012818
   3490       0.00000                      13.739347          13.751473             0.000009
   3491       0.00000                      13.777657          13.783801             0.032328
   3492       0.00000                      13.777664          13.783808             0.000007
   3493       0.00000                      13.933732          13.936221             0.152413
   3494       0.00000                      13.933741          13.936229             0.000009
   3495       0.00000                      13.933939          13.941236             0.005007
   3496       0.00000                      13.933947          13.941244             0.000009
   3497       0.00000                      14.009836          14.014509             0.073265
   3498       0.00000                      14.009845          14.014518             0.000009
   3499       0.00000                      14.048660          14.051667             0.037148
   3500       0.00000                      14.048668          14.051674             0.000008
   3501       0.00000                      14.048930          14.052158             0.000484
   3502       0.00000                      14.048938          14.052166             0.000008
   3503       0.00000                      14.085782          14.089896             0.037730
   3504       0.00000                      14.085789          14.089904             0.000007
   3505       0.00000                      14.149786          14.149874             0.059970
   3506       0.00000                      14.149792          14.149880             0.000006
   3507       0.00000                      14.150095          14.156026             0.006145
   3508       0.00000                      14.150101          14.156032             0.000006
   3509       0.00000                      14.219832          14.216924             0.060892
   3510       0.00000                      14.219838          14.216929             0.000005
   3511       0.00000                      14.230276          14.222045             0.005117
   3512       0.00000                      14.230281          14.222051             0.000006
   3513       0.00000                      14.230298          14.248991             0.026940
   3514       0.00000                      14.230303          14.248996             0.000005
   3515       0.00000                      14.252194          14.254716             0.005720
   3516       0.00000                      14.252201          14.254723             0.000007
   3517       0.00000                      14.269237          14.271215             0.016492
   3518       0.00000                      14.269244          14.271221             0.000006
   3519       0.00000                      14.269431          14.275001             0.003779
   3520       0.00000                      14.269438          14.275008             0.000007
   3521       0.00000                      14.318644          14.324176             0.049169
   3522       0.00000                      14.318651          14.324184             0.000007
   3523       0.00000                      14.380650          14.382785             0.058601
   3524       0.00000                      14.380656          14.382791             0.000006
   3525       0.00000                      14.610679          14.621324             0.238533
   3526       0.00000                      14.610685          14.621331             0.000007
   3527       0.00000                      14.610880          14.622363             0.001032
   3528       0.00000                      14.610887          14.622369             0.000006
   3529       0.00000                      14.712112          14.722653             0.100284
   3530       0.00000                      14.712119          14.722659             0.000006

  What follows are estimated values for band gap, HOMO, LUMO, etc.
  | They are estimated on a discrete k-point grid and not necessarily exact.
  | For converged numbers, create a DOS and/or band structure plot on a denser k-grid.

  Highest occupied state (VBM) at     -5.74446452 eV (relative to internal zero)
  | Occupation number:      1.00000000
  | K-point:       6 at    0.250000    0.250000    0.000000 (in units of recip. lattice)

  Lowest unoccupied state (CBM) at    -4.19812828 eV (relative to internal zero)
  | Occupation number:      0.00000000
  | K-point:      10 at    0.500000    0.250000    0.000000 (in units of recip. lattice)

  ESTIMATED overall HOMO-LUMO gap:      1.54633624 eV between HOMO at k-point 6 and LUMO at k-point 10
  | This appears to be an indirect band gap.
  | Smallest direct gap :      1.54633629 eV for k_point 6 at    0.250000    0.250000    0.000000 (in units of recip. lattice)
  The gap value is above 0.2 eV. Unless you are using a very sparse k-point grid,
  this system is most likely an insulator or a semiconductor.
  | Potential vacuum level, "upper" slab surface:    -0.03045248 eV
  | Potential vacuum level, "lower" slab surface:    -0.05713319 eV
  | Work function ("upper" slab surface)        :     5.01030256 eV
  | Work function ("lower" slab surface)        :     4.98362185 eV
  *** Warning: band gap may exist, check the suitability to define work function using chemical potential.
  | VBM (reference: upper vacuum level)         :     5.71401204 eV
  | CBM (reference: upper vacuum level)         :     4.16767580 eV

  Spin-orbit coupling                                     :  max(cpu_time)    wall_clock(cpu1)
  | Computing matrix elements for SOC operator            :          8.245               8.251
  | Constructing second-variational Hamiltonian           :          4.664               4.669
  | Diagonalizing second-variational Hamiltonian          :          4.993               4.998
  | Syncing data and calculating occupations              :          8.905               8.580
  | Writing out data, calculating band gaps, etc.         :          0.014               0.014
  | Total SOC time                                        :         26.515              26.515

  Partial memory accounting:
  | Current value for overall tracked memory usage:
  |   Minimum:      362.584 MB (on task  20)
  |   Maximum:      964.567 MB (on task 101)
  |   Average:      715.441 MB
  | Peak value for overall tracked memory usage:
  |   Minimum:      486.644 MB (on task  40 after allocating temp_cmplx_eienvec)
  |   Maximum:     1092.290 MB (on task 101 after allocating temp_cmplx_eienvec)
  |   Average:      841.175 MB
  | Largest tracked array allocation so far:
  |   Minimum:       79.169 MB (soc_matrix on task   4)
  |   Maximum:      213.378 MB (ovlp3fn for atom on task 101)
  |   Average:      152.844 MB
  Note:  These values currently only include a subset of arrays which are explicitly tracked.
  The "true" memory usage will be greater.
 ------------------------------------------------------------
 Work function related results without post-SCF corrections:
 ------------------------------------------------------------
  | Chemical Potential                          :    -5.18813029 eV
  Writing energy levels:
  | Potential vacuum level, "upper" slab surface:    -0.03045248 eV
  | Potential vacuum level, "lower" slab surface:    -0.05713319 eV
  Spin-up energy levels:
  | Work function-spin ("upper" slab surface)   :     5.15767782 eV
  | Work function-spin ("lower" slab surface)   :     5.13099710 eV
  *** Warning: band gap may exist, check the suitability to define work function using chemical potential.
  | VBM-spin (reference: upper vacuum level)    :     5.80366022 eV
  | CBM-spin (reference: upper vacuum level)    :     4.15720565 eV
  Spin-down energy levels:
  | Work function-spin ("upper" slab surface)   :     5.15767782 eV
  | Work function-spin ("lower" slab surface)   :     5.13099710 eV
  *** Warning: band gap may exist, check the suitability to define work function using chemical potential.
  | VBM-spin (reference: upper vacuum level)    :     5.80367569 eV
  | CBM-spin (reference: upper vacuum level)    :     4.15727143 eV
 ------------------------------------------------------------
 Work function related results including post-SCF second variational SOC corrections:
 ------------------------------------------------------------
  | Chemical Potential                          :    -5.04075504 eV
  Writing energy levels:
  | Potential vacuum level, "upper" slab surface:    -0.03045248 eV
  | Potential vacuum level, "lower" slab surface:    -0.05713319 eV
  | Work function ("upper" slab surface)        :     5.01030256 eV
  | Work function ("lower" slab surface)        :     4.98362185 eV
  *** Warning: band gap may exist, check the suitability to define work function using chemical potential.
  | VBM (reference: upper vacuum level)         :     5.71401204 eV
  | CBM (reference: upper vacuum level)         :     4.16767580 eV
 ------------------------------------------------------------

------------------------------------------------------------------------------
  Final output of selected total energy values:

  The following output summarizes some interesting total energy values
  at the end of a run (AFTER all relaxation, molecular dynamics, etc.).

  | Total energy of the DFT / Hartree-Fock s.c.f. calculation      :       -6041841.507459875 eV
  | Final zero-broadening corrected energy (caution - metals only) :       -6041841.507459875 eV
  | Total energy after non-SC SOC correction (DO NOT USE)          :       -6041845.480233299 eV
  | For reference only, the value of 1 Hartree used in FHI-aims is :             27.211384500 eV
  | For reference only, the overall average (free atom contribution
  | + realspace contribution) of the electrostatic potential after
  | s.c.f. convergence is                                          :             -1.213868634 eV

  Before relying on these values, please be sure to understand exactly which
  total energy value is referred to by a given number. Different objects may
  all carry the same name 'total energy'. Definitions:

  Total energy of the DFT / Hartree-Fock s.c.f. calculation:
  | Note that this energy does not include ANY quantities calculated after the
  | s.c.f. cycle, in particular not ANY RPA, MP2, etc. many-body perturbation terms.

  Final zero-broadening corrected energy:
  | For metallic systems only, a broadening of the occupation numbers at the Fermi
  | level can be extrapolated back to zero broadening by an electron-gas inspired
  | formula. For all systems that are not real metals, this value can be
  | meaningless and should be avoided.

------------------------------------------------------------------------------
  Methods described in the following list of references were used in this FHI-aims run.
  If you publish the results, please make sure to cite these reference if they apply.
  FHI-aims is an academic code, and for our developers (often, Ph.D. students
  and postdocs), scientific credit in the community is essential.
  Thank you for helping us!

  For any use of FHI-aims, please cite:

    Volker Blum, Ralf Gehrke, Felix Hanke, Paula Havu, Ville Havu,
    Xinguo Ren, Karsten Reuter, and Matthias Scheffler
    'Ab initio molecular simulations with numeric atom-centered orbitals'
    Computer Physics Communications 180, 2175-2196 (2009)
    http://doi.org/10.1016/j.cpc.2009.06.022


  For Hartree-Fock, hybrid functionals, or many-body perturbation theory used in your run, please cite:

    Xinguo Ren, Patrick Rinke, Volker Blum, Juergen Wieferink, Alex Tkatchenko,
    Andrea Sanfilippo, Karsten Reuter, and Matthias Scheffler,
    'Resolution-of-identity approach to Hartree-Fock, hybrid density functionals,
    RPA, MP2, and GW with numeric atom-centered orbital basis functions'
    New Journal of Physics 14, 053020 (2012).
    http://doi.org/10.1088/1367-2630/14/5/053020


  The provided symmetry information was generated with SPGlib:

    Atsushi Togo, Yusuke Seto, Dimitar Pashov
    SPGlib 1.7.3 obtained from http://spglib.sourceforge.net
    Copyright (C) 2008 Atsushi Togo


  For second-variational spin-orbit coupling used in your run, please cite:

    William P. Huhn and Volker Blum,
    'One-hundred-three compound band-structure benchmark of post-self-consistent'
    'spin-orbit coupling treatments in density functional theory'
    Phys. Rev. Materials 1, 033803 (2017).


  The ELSI infrastructure was used in your run to solve the Kohn-Sham electronic structure.
  Please check out http://elsi-interchange.org to learn more.
  If scalability is important for your project, please acknowledge ELSI by citing:

    V. W-z. Yu, F. Corsetti, A. Garcia, W. P. Huhn, M. Jacquelin, W. Jia,
    B. Lange, L. Lin, J. Lu, W. Mi, A. Seifitokaldani, A. Vazquez-Mayagoitia,
    C. Yang, H. Yang, and V. Blum
    'ELSI: A unified software interface for Kohn-Sham electronic structure solvers'
    Computer Physics Communications 222, 267-285 (2018).
    http://doi.org/10.1016/j.cpc.2017.09.007


  For the real-space grid partitioning and parallelization used in this calculation, please cite:

    Ville Havu, Volker Blum, Paula Havu, and Matthias Scheffler,
    'Efficient O(N) integration for all-electron electronic structure calculation'
    'using numerically tabulated basis functions'
    Journal of Computational Physics 228, 8367-8379 (2009).
    http://doi.org/10.1016/j.jcp.2009.08.008


  The high-level electronic structure method used in your calculation
  employed our efficient localized resolution of identity for the Coulomb operator.
  Some calculations, especially large-scale hybrid density functional theory,
  are only possible thanks to this development. For this feature, please cite:

    Arvid Ihrig, Juergen Wieferink, Igor Ying Zhang, Matti Ropo, Xinguo Ren,
    Patrick Rinke, Matthias Scheffler, and Volker Blum,
    'Accurate localized resolution of identity approach for linear-scaling
    hybrid density functionals and for many-body perturbation theory'
    New Journal of Physics 117, 093020 (2015).
    http://doi.org/10.1088/1367-2630/17/9/093020

  Of course, there are many other important community references, e.g., those cited in the
  above references. Our list is limited to references that describe implementations in the
  FHI-aims code. The reason is purely practical (length of this list) - please credit others as well.

------------------------------------------------------------
          Leaving FHI-aims.
          Date     :  20220913, Time     :  150855.454

          Computational steps:
          | Number of self-consistency cycles          :           23
          | Number of SCF (re)initializations          :            1
          | Number of relaxation steps                 :            0

          Detailed time accounting                     :  max(cpu_time)    wall_clock(cpu1)
          | Total time                                  :     2914.743 s        2914.824 s
          | Preparation time                            :        1.353 s           1.354 s
          | Boundary condition initalization            :        0.936 s           0.936 s
          | Grid partitioning                           :        4.465 s           4.465 s
          | Preloading free-atom quantities on grid     :        2.060 s           2.061 s
          | Free-atom superposition energy              :        0.072 s           0.072 s
          | Total time for integrations                 :       44.598 s          44.601 s
          | Product basis setup: Total time             :      258.886 s         258.892 s
          | Total time evaluating exchange matrix       :     2220.000 s        2219.053 s
          | Total time for solution of K.-S. equations  :      160.787 s         160.786 s
          | Total time for EV reorthonormalization      :        0.000 s           0.000 s
          | Total time for density & force components   :      144.180 s         144.182 s
          | Total time for mixing                       :        0.229 s           0.230 s
          | Total time for Hartree multipole update     :        0.300 s           0.297 s
          | Total time for Hartree multipole sum        :       40.762 s          40.759 s
          | Total time for total energy evaluation      :        0.058 s           0.055 s
          | Total time NSC force correction             :        2.637 s           2.638 s
          | Total time for scaled ZORA corrections      :        0.000 s           0.000 s
          | Total time for vdW correction               :        7.591 s           7.594 s
          | Total time for perturbative SOC             :       26.515 s          26.515 s

          Partial memory accounting:
          | Residual value for overall tracked memory usage across tasks:     0.000000 MB (should be 0.000000 MB)
          | Peak values for overall tracked memory usage:
          |   Minimum:      486.644 MB (on task  40 after allocating temp_cmplx_eienvec)
          |   Maximum:     1092.290 MB (on task 101 after allocating temp_cmplx_eienvec)
          |   Average:      841.175 MB
          | Largest tracked array allocation:
          |   Minimum:       79.169 MB (soc_matrix on task   4)
          |   Maximum:      213.378 MB (ovlp3fn for atom on task 101)
          |   Average:      152.844 MB
          Note:  These values currently only include a subset of arrays which are explicitly tracked.
          The "true" memory usage will be greater.

          Have a nice day.
------------------------------------------------------------
