------------------------------------------------------------
          Invoking FHI-aims ...

          When using FHI-aims, please cite the following reference:

            Volker Blum, Ralf Gehrke, Felix Hanke, Paula Havu,
            Ville Havu, Xinguo Ren, Karsten Reuter, and Matthias Scheffler,
            'Ab Initio Molecular Simulations with Numeric Atom-Centered Orbitals',
            Computer Physics Communications 180, 2175-2196 (2009)

          In addition, many other developments in FHI-aims are likely important for
          your particular application. A partial list of references is given at the end of
          this file. Thank you for giving credit to the authors of these developments.

          For any questions about FHI-aims, please visit our slack channel at

            https://fhi-aims.slack.com

          and our main development and support site at

            https://aims-git.rz-berlin.mpg.de .

          The latter site, in particular, has a wiki to collect information, as well
          as an issue tracker to log discussions, suggest improvements, and report issues
          or bugs. https://aims-git.rz-berlin.mpg.de is also the main development site
          of the project and all new and updated code versions can be obtained there.
          Please send an email to aims-coordinators@fhi-berlin.mpg.de and we will add
          you to these sites. They are for you and everyone is welcome there.

------------------------------------------------------------



  Date     :  20220925, Time     :  113130.921
  Time zero on CPU 1             :   0.317146000000000E+00  s.
  Internal wall clock time zero  :           433337490.921  s.

  FHI-aims created a unique identifier for this run for later identification
  aims_uuid : 3A86CE28-D0D3-4F04-A118-DCDFB5E83AD9

  Build configuration of the current instance of FHI-aims
  -------------------------------------------------------
  FHI-aims version      : 220208
  Commit number         : f4a9b4d18
  CMake host system     : Linux-4.12.14-122.88-default
  CMake version         : 3.22.0
  Fortran compiler      : /mpcdf/soft/SLE_12/packages/x86_64/intel_oneapi/2021.3/mpi/2021.3.0/bin/mpiifort (Intel) version 2021.3.0.20210609
  Fortran compiler flags: -O3 -ip -fp-model precise
  C compiler            : /mpcdf/soft/SLE_12/packages/x86_64/intel/2021.3.0/bin/icc (Intel) version 2021.3.0.20210609
  C compiler flags      : -O3 -ip -fp-model precise
  C++ compiler          : /mpcdf/soft/SLE_12/packages/x86_64/intel/2021.3.0/bin/icpc (Intel) version 2021.3.0.20210609
  C++ compiler flags    : -O3 -ip -fp-model precise -std=gnu99
  Using MPI
  Using ScaLAPACK
  Using LibXC
  Using i-PI
  Using RLSY
  Linking against: /mpcdf/soft/SLE_12/packages/x86_64/intel_oneapi/2021.3/mkl/latest/lib/intel64/libmkl_intel_lp64.so
                   /mpcdf/soft/SLE_12/packages/x86_64/intel_oneapi/2021.3/mkl/latest/lib/intel64/libmkl_sequential.so
                   /mpcdf/soft/SLE_12/packages/x86_64/intel_oneapi/2021.3/mkl/latest/lib/intel64/libmkl_core.so
                   /mpcdf/soft/SLE_12/packages/x86_64/intel_oneapi/2021.3/mkl/latest/lib/intel64/libmkl_blacs_intelmpi_lp64.so
                   /mpcdf/soft/SLE_12/packages/x86_64/intel_oneapi/2021.3/mkl/latest/lib/intel64/libmkl_scalapack_lp64.so

  Using      160 parallel tasks.
  Task        0 on host co2638 reporting.
  Task        1 on host co2638 reporting.
  Task        2 on host co2638 reporting.
  Task        3 on host co2638 reporting.
  Task        4 on host co2638 reporting.
  Task        5 on host co2638 reporting.
  Task        6 on host co2638 reporting.
  Task        7 on host co2638 reporting.
  Task        8 on host co2638 reporting.
  Task        9 on host co2638 reporting.
  Task       10 on host co2638 reporting.
  Task       11 on host co2638 reporting.
  Task       12 on host co2638 reporting.
  Task       13 on host co2638 reporting.
  Task       14 on host co2638 reporting.
  Task       15 on host co2638 reporting.
  Task       16 on host co2638 reporting.
  Task       17 on host co2638 reporting.
  Task       18 on host co2638 reporting.
  Task       19 on host co2638 reporting.
  Task       20 on host co2638 reporting.
  Task       21 on host co2638 reporting.
  Task       22 on host co2638 reporting.
  Task       23 on host co2638 reporting.
  Task       24 on host co2638 reporting.
  Task       25 on host co2638 reporting.
  Task       26 on host co2638 reporting.
  Task       27 on host co2638 reporting.
  Task       28 on host co2638 reporting.
  Task       29 on host co2638 reporting.
  Task       30 on host co2638 reporting.
  Task       31 on host co2638 reporting.
  Task       32 on host co2638 reporting.
  Task       33 on host co2638 reporting.
  Task       34 on host co2638 reporting.
  Task       35 on host co2638 reporting.
  Task       36 on host co2638 reporting.
  Task       37 on host co2638 reporting.
  Task       38 on host co2638 reporting.
  Task       39 on host co2638 reporting.
  Task       40 on host co2639 reporting.
  Task       41 on host co2639 reporting.
  Task       42 on host co2639 reporting.
  Task       43 on host co2639 reporting.
  Task       44 on host co2639 reporting.
  Task       45 on host co2639 reporting.
  Task       46 on host co2639 reporting.
  Task       47 on host co2639 reporting.
  Task       48 on host co2639 reporting.
  Task       49 on host co2639 reporting.
  Task       50 on host co2639 reporting.
  Task       51 on host co2639 reporting.
  Task       52 on host co2639 reporting.
  Task       53 on host co2639 reporting.
  Task       54 on host co2639 reporting.
  Task       55 on host co2639 reporting.
  Task       56 on host co2639 reporting.
  Task       57 on host co2639 reporting.
  Task       58 on host co2639 reporting.
  Task       59 on host co2639 reporting.
  Task       60 on host co2639 reporting.
  Task       61 on host co2639 reporting.
  Task       62 on host co2639 reporting.
  Task       63 on host co2639 reporting.
  Task       64 on host co2639 reporting.
  Task       65 on host co2639 reporting.
  Task       66 on host co2639 reporting.
  Task       67 on host co2639 reporting.
  Task       68 on host co2639 reporting.
  Task       69 on host co2639 reporting.
  Task       70 on host co2639 reporting.
  Task       71 on host co2639 reporting.
  Task       72 on host co2639 reporting.
  Task       73 on host co2639 reporting.
  Task       74 on host co2639 reporting.
  Task       75 on host co2639 reporting.
  Task       76 on host co2639 reporting.
  Task       77 on host co2639 reporting.
  Task       78 on host co2639 reporting.
  Task       79 on host co2639 reporting.
  Task       80 on host co2640 reporting.
  Task       81 on host co2640 reporting.
  Task       82 on host co2640 reporting.
  Task       83 on host co2640 reporting.
  Task       84 on host co2640 reporting.
  Task       85 on host co2640 reporting.
  Task       86 on host co2640 reporting.
  Task       87 on host co2640 reporting.
  Task       88 on host co2640 reporting.
  Task       89 on host co2640 reporting.
  Task       90 on host co2640 reporting.
  Task       91 on host co2640 reporting.
  Task       92 on host co2640 reporting.
  Task       93 on host co2640 reporting.
  Task       94 on host co2640 reporting.
  Task       95 on host co2640 reporting.
  Task       96 on host co2640 reporting.
  Task       97 on host co2640 reporting.
  Task       98 on host co2640 reporting.
  Task       99 on host co2640 reporting.
  Task      100 on host co2640 reporting.
  Task      101 on host co2640 reporting.
  Task      102 on host co2640 reporting.
  Task      103 on host co2640 reporting.
  Task      104 on host co2640 reporting.
  Task      105 on host co2640 reporting.
  Task      106 on host co2640 reporting.
  Task      107 on host co2640 reporting.
  Task      108 on host co2640 reporting.
  Task      109 on host co2640 reporting.
  Task      110 on host co2640 reporting.
  Task      111 on host co2640 reporting.
  Task      112 on host co2640 reporting.
  Task      113 on host co2640 reporting.
  Task      114 on host co2640 reporting.
  Task      115 on host co2640 reporting.
  Task      116 on host co2640 reporting.
  Task      117 on host co2640 reporting.
  Task      118 on host co2640 reporting.
  Task      119 on host co2640 reporting.
  Task      120 on host co2641 reporting.
  Task      121 on host co2641 reporting.
  Task      122 on host co2641 reporting.
  Task      123 on host co2641 reporting.
  Task      124 on host co2641 reporting.
  Task      125 on host co2641 reporting.
  Task      126 on host co2641 reporting.
  Task      127 on host co2641 reporting.
  Task      128 on host co2641 reporting.
  Task      129 on host co2641 reporting.
  Task      130 on host co2641 reporting.
  Task      131 on host co2641 reporting.
  Task      132 on host co2641 reporting.
  Task      133 on host co2641 reporting.
  Task      134 on host co2641 reporting.
  Task      135 on host co2641 reporting.
  Task      136 on host co2641 reporting.
  Task      137 on host co2641 reporting.
  Task      138 on host co2641 reporting.
  Task      139 on host co2641 reporting.
  Task      140 on host co2641 reporting.
  Task      141 on host co2641 reporting.
  Task      142 on host co2641 reporting.
  Task      143 on host co2641 reporting.
  Task      144 on host co2641 reporting.
  Task      145 on host co2641 reporting.
  Task      146 on host co2641 reporting.
  Task      147 on host co2641 reporting.
  Task      148 on host co2641 reporting.
  Task      149 on host co2641 reporting.
  Task      150 on host co2641 reporting.
  Task      151 on host co2641 reporting.
  Task      152 on host co2641 reporting.
  Task      153 on host co2641 reporting.
  Task      154 on host co2641 reporting.
  Task      155 on host co2641 reporting.
  Task      156 on host co2641 reporting.
  Task      157 on host co2641 reporting.
  Task      158 on host co2641 reporting.
  Task      159 on host co2641 reporting.

  Performing system and environment tests:
  | Environment variable OMP_NUM_THREADS correctly set to 1.
  | Checking for ScaLAPACK...
  | Testing pdtran()...
  | All pdtran() tests passed.

  Obtaining array dimensions for all initial allocations:
  
  -----------------------------------------------------------------------
  Parsing control.in (first pass over file, find array dimensions only).
  The contents of control.in will be repeated verbatim below
  unless switched off by setting 'verbatim_writeout .false.' .
  in the first line of control.in .
  -----------------------------------------------------------------------
  
  ##### Physical settings  ################
  xc                 pbe
  spin               collinear
  default_initial_moment 1
  charge      0.0
  relativistic       atomic_zora scalar
  #elsi_restart read
  # SCF settings
  #vdw_correction_hirshfeld
  occupation_type gaussian       0.01
  # k-grid settings  (to be adjusted)
  k_grid  4 4 1
  elsi_restart read_and_write 10
  empty_states 8
  include_spin_orbit non_self_consistent
  use_dipole_correction
  #output cube stm -0.5
  #mixer   pulay
  #n_max_pulay        12 # high for metal
  #charge_mix_param   0.07 #low for metal
  
  #output cube stm -0.5
  output dos_tetrahedron -10 0 2001 0.1
  output species_proj_dos_tetrahedron -10 0 2001 0.1
  many_body_dispersion_nl    beta=0.81
  ################################################################################
  #
  #  FHI-aims code project
  # Volker Blum, Fritz Haber Institute Berlin, 2009
  #
  #  Suggested "tight" defaults for S atom (to be pasted into control.in file)
  #
  #  Revised Jan 04, 2011, following tests (SiC) done by Lydia Nemec:
  #     d and g functions of tier 2 now enabled by default.
  #
  ################################################################################
    species        S
  #     global species definitions
      nucleus             16
      mass                32.065
  #
      l_hartree           6
  #
      cut_pot             4.0          2.0  1.0
      basis_dep_cutoff    1e-4
  #
      radial_base         44 7.0
      radial_multiplier   2
      angular_grids       specified
        division   0.4665  110
        division   0.5810  194
        division   0.7139  302
        division   0.8274  434
  #      division   0.9105  590
  #      division   1.0975  770
  #      division   1.2028  974
  #      outer_grid  974
        outer_grid  434
  ################################################################################
  #
  #  Definition of "minimal" basis
  #
  ################################################################################
  #     valence basis states
      valence      3  s   2.
      valence      3  p   4.
  #     ion occupancy
      ion_occ      3  s   1.
      ion_occ      3  p   3.
  ################################################################################
  #
  #  Suggested additional basis functions. For production calculations,
  #  uncomment them one after another (the most important basis functions are
  #  listed first).
  #
  #  Constructed for dimers: 1.6 A, 1.9 A, 2.5 A, 3.25 A, 4.0 A
  #
  ################################################################################
  #  "First tier" - improvements: -652.81 meV to -45.53 meV
       ionic 3 d auto
       hydro 2 p 1.8
       hydro 4 f 7
       ionic 3 s auto
  #  "Second tier" - improvements: -30.20 meV to -1.74 meV
       hydro 4 d 6.2
       hydro 5 g 10.8
  #     hydro 4 p 4.9
  #     hydro 5 f 10
  #     hydro 1 s 0.8
  #  "Third tier" - improvements: -1.04 meV to -0.20 meV
  #     hydro 3 d 3.9
  #     hydro 3 d 2.7
  #     hydro 5 g 12
  #     hydro 4 p 10.4
  #     hydro 5 f 12.4
  #     hydro 2 s 1.9
  #  "Fourth tier" - improvements: -0.35 meV to -0.06 meV
  #     hydro 4 d 10.4
  #     hydro 4 p 7.2
  #     hydro 4 d 10
  #     hydro 5 g 19.2
  #     hydro 4 s 12
  
  ################################################################################
  #
  # For methods that use the localized form of the "resolution of identity" for
  # the two-electron Coulomb operator (RI_method LVL), particularly Hartree-Fock and
  # hybrid density functional calculations, the highest accuracy can be obtained by
  # uncommenting the line beginning with "for_aux"  below, thus adding an extra g radial
  # function to the construction of the product basis set for the expansion.
  # See Ref. New J. Phys. 17, 093020 (2015) for more information, particularly Figs. 1 and 6.
  #
  ################################################################################
  #
  # for_aux hydro 5 g 6.0
  ################################################################################
  #
  #  FHI-aims code project
  # Volker Blum, Fritz Haber Institute Berlin, 2009
  #
  #  Suggested "tight" defaults for Mo atom (to be pasted into control.in file)
  #
  ################################################################################
    species        Mo
  #     global species definitions
      nucleus             42
      mass                95.94
  #
      l_hartree           6
  #
      cut_pot             4.0  2.0  1.0
      basis_dep_cutoff    1e-4
  #
      radial_base         59 7.0
      radial_multiplier   2
      angular_grids specified
        division   0.3117   50
        division   0.6750  110
        division   1.0351  194
        division   1.2073  302
        division   1.6402  434
  #      division   1.9185  590
  #      division   2.0237  770
  #      division   2.0980  974
  #      division   2.7972 1202
  #      outer_grid  974
        outer_grid  434
  ################################################################################
  #
  #  Definition of "minimal" basis
  #
  ################################################################################
  #     valence basis states
      valence      5  s   1.
      valence      4  p   6.
      valence      4  d   5.
  #     ion occupancy
      ion_occ     5  s   0.
      ion_occ     4  p   6.
      ion_occ     4  d   4.
  ################################################################################
  #
  #  Suggested additional basis functions. For production calculations,
  #  uncomment them one after another (the most important basis functions are
  #  listed first).
  #
  #  Constructed for dimers: 1.675 A, 1.9 A, 2.375 A, 3.00 A, 4.00 A
  #
  ################################################################################
  #  "First tier"  - max. impr. -711.23  meV, min. impr. -21.07 meV
       hydro 4 f 8.4
       hydro 3 d 2.8
       ionic 5 p auto
       hydro 5 g 12
       ionic 5 s auto
  #  "Second tier" - max. impr. -39.38  meV, min. impr. -2.68 meV
  #     hydro 4 f 12.4
  #     hydro 3 d 3.3
  #     hydro 6 h 17.2
  #     hydro 4 f 7.6
  #     hydro 3 p 3.0
  #     hydro 1 s 0.65
  #  "Third tier"  - max. impr. -5.50 meV, min. impr. -0.47 meV
  #     hydro 4 f 29.2
  #     hydro 5 g 11.2
  #     hydro 3 d 6.8
  #     hydro 6 h 14.8
  #     hydro 2 p 2.3
  #     hydro 4 s 3.8
  #  "Fourth tier"  - max. impr. -0.58 meV, min. impr. -0.19 meV
  #     hydro 5 f 6.8
  #     hydro 5 d 14.8
  #     hydro 6 s 7.8
  #     hydro 5 g 20.8
  #     hydro 5 d 10.4
  #     hydro 5 p 9.8
  #  Further functions - -0.17 meV and below
  #     hydro 5 d 3.2
  ################################################################################
  #
  #  FHI-aims code project
  # Volker Blum, Fritz Haber Institute Berlin, 2009
  #
  #  Suggested "tight" defaults for W atom (to be pasted into control.in file)
  #
  ################################################################################
    species          W
  #     global species definitions
      nucleus        74
      mass           183.84
  #
      l_hartree      6
  #
      cut_pot        4.0  2.0  1.0
      basis_dep_cutoff    1e-4
  #
      radial_base    71  7.0
      radial_multiplier  2
      angular_grids specified
        division   0.2901   50
        division   0.6986  110
        division   1.0528  194
        division   1.2659  302
        division   1.5223  434
  #      division   1.8111  590
  #      division   2.0105  770
  #      division   2.0413  974
  #      division   2.8804 1202
  #      outer_grid  974
        outer_grid  434
  ################################################################################
  #
  #  Definition of "minimal" basis
  #
  ################################################################################
  #     valence basis states
      valence      6  s   2.
      valence      5  p   6.
      valence      5  d   4.
      valence      4  f  14.
  #     ion occupancy
      ion_occ      6  s   1.
      ion_occ      5  p   6.
      ion_occ      5  d   3.
      ion_occ      4  f  14.
  ################################################################################
  #
  #  Suggested additional basis functions. For production calculations,
  #  uncomment them one after another (the most important basis functions are
  #  listed first).
  #
  #  Constructed for dimers: 1.775, 1.99, 2.50, 3.25, 4.50 AA
  #
  ################################################################################
  #
  #  "First tier" - improvements: -603.77 meV to -28.99 meV
       hydro 4 f 7.8
       hydro 4 d 5.8
       ionic 6 p auto
       hydro 5 g 12.4
       ionic 6 s auto
  #  "Second tier" - improvements: -28.30 meV to -1.31 meV
  #     hydro 6 h 16.8
  #     ionic 5 d auto
  #     hydro 4 f 8.6
  #     hydro 5 g 16.8
  #     hydro 5 d 8.4
  #     hydro 3 p 3.3
  #     hydro 1 s 0.55
  #  "Third tier" - max. impr. -1.79 meV, min. impr. -0.26 meV
  #     hydro 5 f 10.8
  #     hydro 5 g 34.4
  #     hydro 6 h 20.8
  #     hydro 5 g 12.8
  #     hydro 2 p 1.6
  #     hydro 4 s 4.7
  #     hydro 6 d 18.4
  #  "Fourth tier" -0.46 max. impr. - meV, min. impr. -0.09 meV
  #     hydro 6 h 21.6
  #     hydro 5 f 22.4
  #     hydro 4 f 4
  #     hydro 5 p 9.6
  #     hydro 6 d 17.2
  #     hydro 3 p 5.2
  #     hydro 5 g 4.7
  #     hydro 6 s 7.6
  ################################################################################
  #
  #  FHI-aims code project
  # Volker Blum, Fritz Haber Institute Berlin, 2009
  #
  #  Suggested "tight" defaults for Se atom (to be pasted into control.in file)
  #
  ################################################################################
    species        Se
  #     global species definitions
      nucleus             34
      mass                78.96
  #
      l_hartree           6
  #
      cut_pot             4.0          2.0  1.0
      basis_dep_cutoff    1e-4
  #
      radial_base         55 7.0
      radial_multiplier   2
      angular_grids       specified
        division   0.0830  110
        division   0.1357  194
        division   0.7377  302
        division   0.8610  434
  #      division   0.9640  590
  #      division   1.0773  770
  #      division   2.5539  974
  #      outer_grid  974
        outer_grid  434
  ################################################################################
  #
  #  Definition of "minimal" basis
  #
  ################################################################################
  #     valence basis states
      valence      4  s   2.
      valence      4  p   4.
      valence      3  d  10.
  #     ion occupancy
      ion_occ      4  s   1.
      ion_occ      4  p   3.
      ion_occ      3  d  10.
  ################################################################################
  #
  #  Suggested additional basis functions. For production calculations,
  #  uncomment them one after another (the most important basis functions are
  #  listed first).
  #
  #  Constructed for dimers: 1.85 A, 2.15 A, 2.50 A, 3.00 A, 4.00 A
  #
  ################################################################################
  #  "First tier" - improvements: -336.21 meV to -36.85 meV
       hydro 3 d 4.3
       hydro 2 p 1.6
       hydro 4 f 7.2
       ionic 4 s auto
  #  "Second tier" - improvements: -14.39 meV to -1.49 meV
  #     hydro 5 g 10.4
  #     hydro 4 p 4.5
  #     hydro 4 d 6.2
  #     hydro 4 f 11.2
  #     hydro 1 s 0.65
  #     hydro 6 h 15.2
  #  "Third tier" - improvements: -0.46 meV and below
  #     hydro 5 g 14.4
  #     ionic 4 d auto
  #     hydro 4 f 22.4
  #     hydro 5 f 7.4
  #     hydro 5 p 8
  #     hydro 5 s 9.4
  #  "Fourth tier" - improvements: -0.12 meV and below
  #     hydro 5 d 11.6
  #     hydro 6 h 18
  #     hydro 4 p 4
  #     hydro 5 f 16
  #     hydro 4 s 3.9
  
  
  
  -----------------------------------------------------------------------
  Completed first pass over input file control.in .
  -----------------------------------------------------------------------
  
  
  -----------------------------------------------------------------------
  Parsing geometry.in (first pass over file, find array dimensions only).
  The contents of geometry.in will be repeated verbatim below
  unless switched off by setting 'verbatim_writeout .false.' .
  in the first line of geometry.in .
  -----------------------------------------------------------------------
  
  #
  # This is the geometry file that corresponds to the current relaxation step.
  # If you do not want this file to be written, set the "write_restart_geometry" flag to .false.
  #  aims_uuid : D66BE918-0CA0-4A08-ADBB-5E08E393AFD0
  #
    set_vacuum_level        52.484009
  lattice_vector     16.44347560      0.00000000      0.00000000
  lattice_vector     -8.22357185     14.23911350      0.00000000
  lattice_vector      0.00000000      0.00000000     99.63748923
  atom      -0.03352129      0.90907605      2.66555312 W
  atom       1.60882052      1.87309404      4.34878448 Se
  atom       1.60877810      1.87304982      0.98222264 Se
  atom      -1.65316772      3.78024195      2.66553637 W
  atom       0.01563612      4.81329471      4.34034877 Se
  atom       0.01559468      4.81331029      0.99067016 Se
  atom      -3.27560531      6.58944483      2.66557752 W
  atom      -1.54644931      7.51797673      4.34033425 Se
  atom      -1.54649215      7.51800502      0.99078847 Se
  atom      -4.95305971      9.42729655      2.66562066 W
  atom      -3.29688935     10.36741138      4.34884366 Se
  atom      -3.29691913     10.36737890      0.98233602 Se
  atom      -6.61434194     12.28238426      2.66560338 W
  atom      -4.96321830     13.23558525      4.34582465 Se
  atom      -4.96324917     13.23550376      0.98527770 Se
  atom       3.25126007      0.90905538      2.66550445 W
  atom       4.88903300      1.86729805      4.34912129 Se
  atom       4.88905472      1.86728547      0.98187531 Se
  atom       1.60845848      3.79336614      2.66547708 W
  atom       3.20123516      4.81318686      4.34027541 Se
  atom       3.20123763      4.81321672      0.99072877 Se
  atom       0.20025496      6.72318478      2.66552721 W
  atom      -1.63362857      9.40730530      2.66557980 W
  atom       0.04600834     10.27667514      4.34037438 Se
  atom       0.04603885     10.27666447      0.99081396 Se
  atom      -3.31102655     12.27168441      2.66555843 W
  atom      -1.66219192     13.21085424      4.34916899 Se
  atom      -1.66216887     13.21080169      0.98193974 Se
  atom       6.53624890      0.88782014      2.66552410 W
  atom       8.18276300      1.83840139      4.34991475 Se
  atom       8.18281545      1.83840183      0.98119069 Se
  atom       4.87020122      3.78014076      2.66550707 W
  atom       6.52503268      4.69760194      4.35032907 Se
  atom       6.52510305      4.69761628      0.98076156 Se
  atom       3.01610688      6.72317342      2.66553739 W
  atom       4.76255443      7.51798038      4.34042897 Se
  atom       4.76254368      7.51805683      0.99074213 Se
  atom       1.60778522      9.16149352      2.66562114 W
  atom       3.16930762     10.27656450      4.34048345 Se
  atom       3.16931410     10.27661302      0.99079780 Se
  atom      -0.01462607     12.23837416      2.66558743 W
  atom       1.60730130     13.21277357      4.35041599 Se
  atom       1.60735034     13.21274122      0.98079931 Se
  atom       9.83061654      0.88270193      2.66558575 W
  atom      11.47828994      1.83840718      4.34995257 Se
  atom      11.47830131      1.83838969      0.98123046 Se
  atom       8.17859669      3.74315110      2.66556356 W
  atom       9.83017240      4.69206718      4.34994246 Se
  atom       9.83018849      4.69211175      0.98123440 Se
  atom       6.49182799      6.58950020      2.66557187 W
  atom       8.15782086      7.52977807      4.34923114 Se
  atom       8.15789351      7.52984070      0.98202855 Se
  atom       4.84911800      9.40727408      2.66563166 W
  atom       6.51228076     10.36739713      4.34891356 Se
  atom       6.51232012     10.36743764      0.98241815 Se
  atom       3.22937566     12.23830901      2.66564619 W
  atom       4.87680718     13.21081929      4.34924562 Se
  atom       4.87681542     13.21076533      0.98203523 Se
  atom      13.12497613      0.88781807      2.66560209 W
  atom      14.77205713      1.86735549      4.34916706 Se
  atom      14.77200721      1.86731618      0.98194774 Se
  atom      11.48192099      3.74316071      2.66557316 W
  atom      13.13531715      4.69761434      4.35035989 Se
  atom      13.13526965      4.69763672      0.98076196 Se
  atom       9.82989199      6.59331441      2.66562143 W
  atom      11.50178835      7.52978884      4.34921798 Se
  atom      11.50174718      7.52981218      0.98199934 Se
  atom       8.16858425      9.42730171      2.66566542 W
  atom       9.82944213     10.37595630      4.34592606 Se
  atom       9.82940415     10.37591880      0.98534829 Se
  atom       6.52581384     12.27169200      2.66565212 W
  atom       8.17789667     13.23558637      4.34588407 Se
  atom       8.17784936     13.23550422      0.98532532 Se
  #
  # What follows is the current estimated Hessian matrix constructed by the BFGS algorithm.
  # This is NOT the true Hessian matrix of the system.
  # If you do not want this information here, switch it off using the "hessian_to_restart_geometry" keyword.
  #
  
  -----------------------------------------------------------------------
  Completed first pass over input file geometry.in .
  -----------------------------------------------------------------------
  

  Basic array size parameters:
  | Number of species                 :        4
  | Number of atoms                   :       73
  | Number of lattice vectors         :        3
  | Max. basis fn. angular momentum   :        4
  | Max. atomic/ionic basis occupied n:        6
  | Max. number of basis fn. types    :        3
  | Max. radial fns per species/type  :       14
  | Max. logarithmic grid size        :     1483
  | Max. radial integration grid size :      143
  | Max. angular integration grid size:      434
  | Max. angular grid division number :        8
  | Radial grid for Hartree potential :     1483
  | Number of spin channels           :        2

------------------------------------------------------------
          Reading file control.in.
------------------------------------------------------------
  XC: Using PBE gradient-corrected functionals.
  Spin treatment: Spin density functional theory - collinear spins.
  Initial spin moment per atom:   1.0000
  Charge =   0.000000E+00: Neutral system requested explicitly.
  Scalar relativistic treatment of kinetic energy: on-site free-atom approximation to ZORA.
  Occupation type: Gaussian broadening, width =   0.100000E-01 eV.
  Found k-point grid:         4         4         1
  Number of empty states per atom:        8
  Calculating non-self-consistent second-variational spin-orbit coupling after scf-cycle
  You have request a SOC run with spin-polarization.
  symmetry_reduced_k_grid will be turned off.
  Using dipole correction.
  Calculating density of states with
  | energy interval :-10.000000  0.000000
  | points & tetrahedron method :  2001
  Calculating angular-momentum projected DOS with 
  | energy interval :-10.000000  0.000000
  | points & tetrahedron :  2001
  Using libMBD for calculating MBD and TS energies
 
  Reading configuration options for species S                   .
  | Found nuclear charge :  16.0000
  | Found atomic mass :    32.0650000000000      amu
  | Found l_max for Hartree potential  :   6
  | Found cutoff potl. onset [A], width [A], scale factor :    4.00000    2.00000    1.00000
  | Threshold for basis-dependent cutoff potential is   0.100000E-03
  | Found data for basic radial integration grid :    44 points, outermost radius =    7.000 A
  | Found multiplier for basic radial grid :   2
  | Found angular grid specification: user-specified.
  | Specified grid contains     5 separate shells.
  | Check grid settings after all constraints further below.
  | Found free-atom valence shell :  3 s   2.000
  | Found free-atom valence shell :  3 p   4.000
  | Found free-ion valence shell :  3 s   1.000
  | Found free-ion valence shell :  3 p   3.000
  | Found ionic basis function :  3 d , default cutoff radius.
  | Found hydrogenic basis function :  2 p   1.800
  | Found hydrogenic basis function :  4 f   7.000
  | Found ionic basis function :  3 s , default cutoff radius.
  | Found hydrogenic basis function :  4 d   6.200
  | Found hydrogenic basis function :  5 g  10.800
  Species S                   : Missing cutoff potential type.
  Defaulting to exp(1/x)/(1-x)^2 type cutoff potential.
  Species S : No 'logarithmic' tag. Using default grid for free atom:
  | Default logarithmic grid data [bohr] : 0.1000E-03 0.1000E+03 0.1012E+01
  | Will include ionic basis functions of  2.0-fold positive S                    ion.
  Species S : On-site basis accuracy parameter (for Gram-Schmidt orthonormalisation) not specified.
  Using default value basis_acc =  0.1000000E-03.
  Species S                   : Using default innermost maximum threshold i_radial=  2 for radial functions.
  Species S                   : Default cutoff onset for free atom density etc. : 0.40000000E+01 AA.
  Species S                   : Basic radial grid will be enhanced according to radial_multiplier =   2, to contain    89 grid points.
 
  Reading configuration options for species Mo                  .
  | Found nuclear charge :  42.0000
  | Found atomic mass :    95.9400000000000      amu
  | Found l_max for Hartree potential  :   6
  | Found cutoff potl. onset [A], width [A], scale factor :    4.00000    2.00000    1.00000
  | Threshold for basis-dependent cutoff potential is   0.100000E-03
  | Found data for basic radial integration grid :    59 points, outermost radius =    7.000 A
  | Found multiplier for basic radial grid :   2
  | Found angular grid specification: user-specified.
  | Specified grid contains     6 separate shells.
  | Check grid settings after all constraints further below.
  | Found free-atom valence shell :  5 s   1.000
  | Found free-atom valence shell :  4 p   6.000
  | Found free-atom valence shell :  4 d   5.000
  | Found free-ion valence shell :  5 s   0.000
  | Found free-ion valence shell :  4 p   6.000
  | Found free-ion valence shell :  4 d   4.000
  | Found hydrogenic basis function :  4 f   8.400
  | Found hydrogenic basis function :  3 d   2.800
  | Found ionic basis function :  5 p , default cutoff radius.
  | Found hydrogenic basis function :  5 g  12.000
  | Found ionic basis function :  5 s , default cutoff radius.
  Species Mo                  : Missing cutoff potential type.
  Defaulting to exp(1/x)/(1-x)^2 type cutoff potential.
  Species Mo: No 'logarithmic' tag. Using default grid for free atom:
  | Default logarithmic grid data [bohr] : 0.1000E-03 0.1000E+03 0.1012E+01
  | Will include ionic basis functions of  2.0-fold positive Mo                   ion.
  Species Mo: On-site basis accuracy parameter (for Gram-Schmidt orthonormalisation) not specified.
  Using default value basis_acc =  0.1000000E-03.
  Species Mo                  : Using default innermost maximum threshold i_radial=  2 for radial functions.
  Species Mo                  : Default cutoff onset for free atom density etc. : 0.40000000E+01 AA.
  Species Mo                  : Basic radial grid will be enhanced according to radial_multiplier =   2, to contain   119 grid points.
 
  Reading configuration options for species W                   .
  | Found nuclear charge :  74.0000
  | Found atomic mass :    183.840000000000      amu
  | Found l_max for Hartree potential  :   6
  | Found cutoff potl. onset [A], width [A], scale factor :    4.00000    2.00000    1.00000
  | Threshold for basis-dependent cutoff potential is   0.100000E-03
  | Found data for basic radial integration grid :    71 points, outermost radius =    7.000 A
  | Found multiplier for basic radial grid :   2
  | Found angular grid specification: user-specified.
  | Specified grid contains     6 separate shells.
  | Check grid settings after all constraints further below.
  | Found free-atom valence shell :  6 s   2.000
  | Found free-atom valence shell :  5 p   6.000
  | Found free-atom valence shell :  5 d   4.000
  | Found free-atom valence shell :  4 f  14.000
  | Found free-ion valence shell :  6 s   1.000
  | Found free-ion valence shell :  5 p   6.000
  | Found free-ion valence shell :  5 d   3.000
  | Found free-ion valence shell :  4 f  14.000
  | Found hydrogenic basis function :  4 f   7.800
  | Found hydrogenic basis function :  4 d   5.800
  | Found ionic basis function :  6 p , default cutoff radius.
  | Found hydrogenic basis function :  5 g  12.400
  | Found ionic basis function :  6 s , default cutoff radius.
  Species W                   : Missing cutoff potential type.
  Defaulting to exp(1/x)/(1-x)^2 type cutoff potential.
  Species W : No 'logarithmic' tag. Using default grid for free atom:
  | Default logarithmic grid data [bohr] : 0.1000E-03 0.1000E+03 0.1012E+01
  | Will include ionic basis functions of  2.0-fold positive W                    ion.
  Species W : On-site basis accuracy parameter (for Gram-Schmidt orthonormalisation) not specified.
  Using default value basis_acc =  0.1000000E-03.
  Species W                   : Using default innermost maximum threshold i_radial=  2 for radial functions.
  Species W                   : Default cutoff onset for free atom density etc. : 0.40000000E+01 AA.
  Species W                   : Basic radial grid will be enhanced according to radial_multiplier =   2, to contain   143 grid points.
 
  Reading configuration options for species Se                  .
  | Found nuclear charge :  34.0000
  | Found atomic mass :    78.9600000000000      amu
  | Found l_max for Hartree potential  :   6
  | Found cutoff potl. onset [A], width [A], scale factor :    4.00000    2.00000    1.00000
  | Threshold for basis-dependent cutoff potential is   0.100000E-03
  | Found data for basic radial integration grid :    55 points, outermost radius =    7.000 A
  | Found multiplier for basic radial grid :   2
  | Found angular grid specification: user-specified.
  | Specified grid contains     5 separate shells.
  | Check grid settings after all constraints further below.
  | Found free-atom valence shell :  4 s   2.000
  | Found free-atom valence shell :  4 p   4.000
  | Found free-atom valence shell :  3 d  10.000
  | Found free-ion valence shell :  4 s   1.000
  | Found free-ion valence shell :  4 p   3.000
  | Found free-ion valence shell :  3 d  10.000
  | Found hydrogenic basis function :  3 d   4.300
  | Found hydrogenic basis function :  2 p   1.600
  | Found hydrogenic basis function :  4 f   7.200
  | Found ionic basis function :  4 s , default cutoff radius.
  Species Se                  : Missing cutoff potential type.
  Defaulting to exp(1/x)/(1-x)^2 type cutoff potential.
  Species Se: No 'logarithmic' tag. Using default grid for free atom:
  | Default logarithmic grid data [bohr] : 0.1000E-03 0.1000E+03 0.1012E+01
  | Will include ionic basis functions of  2.0-fold positive Se                   ion.
  Species Se: On-site basis accuracy parameter (for Gram-Schmidt orthonormalisation) not specified.
  Using default value basis_acc =  0.1000000E-03.
  Species Se                  : Using default innermost maximum threshold i_radial=  2 for radial functions.
  Species Se                  : Default cutoff onset for free atom density etc. : 0.40000000E+01 AA.
  Species Se                  : Basic radial grid will be enhanced according to radial_multiplier =   2, to contain   111 grid points.
 
  Finished reading input file 'control.in'.
 
------------------------------------------------------------


------------------------------------------------------------
          Reading geometry description geometry.in.
------------------------------------------------------------
  Vacuum level in z-axis :   0.524840E+02
  | The smallest distance between any two atoms is         2.52622694 AA.
  | The first atom of this pair is atom number                     19 .
  | The second atom of this pair is atom number                    21 .
  | Wigner-Seitz cell of the first atom image           0     0     0 .
  | (The Wigner-Seitz cell of the second atom is 0 0 0  by definition.)

  Symmetry information by spglib:
  | Precision set to  0.1E-04
  | Number of Operations  : 1
  | Space group           : 1
  | International         : P1 atom
  | Schoenflies           : C1^1
  Input structure read successfully.
  The structure contains       73 atoms,  and a total of       3482.000 electrons.

  Input geometry:
  | Unit cell:
  |       16.44347560        0.00000000        0.00000000
  |       -8.22357185       14.23911350        0.00000000
  |        0.00000000        0.00000000       99.63748923
  | Atomic structure:
  |       Atom                x [A]            y [A]            z [A]
  |    1: Species W            -0.03352129        0.90907605        2.66555312
  |    2: Species Se            1.60882052        1.87309404        4.34878448
  |    3: Species Se            1.60877810        1.87304982        0.98222264
  |    4: Species W            -1.65316772        3.78024195        2.66553637
  |    5: Species Se            0.01563612        4.81329471        4.34034877
  |    6: Species Se            0.01559468        4.81331029        0.99067016
  |    7: Species W            -3.27560531        6.58944483        2.66557752
  |    8: Species Se           -1.54644931        7.51797673        4.34033425
  |    9: Species Se           -1.54649215        7.51800502        0.99078847
  |   10: Species W            -4.95305971        9.42729655        2.66562066
  |   11: Species Se           -3.29688935       10.36741138        4.34884366
  |   12: Species Se           -3.29691913       10.36737890        0.98233602
  |   13: Species W            -6.61434194       12.28238426        2.66560338
  |   14: Species Se           -4.96321830       13.23558525        4.34582465
  |   15: Species Se           -4.96324917       13.23550376        0.98527770
  |   16: Species W             3.25126007        0.90905538        2.66550445
  |   17: Species Se            4.88903300        1.86729805        4.34912129
  |   18: Species Se            4.88905472        1.86728547        0.98187531
  |   19: Species W             1.60845848        3.79336614        2.66547708
  |   20: Species Se            3.20123516        4.81318686        4.34027541
  |   21: Species Se            3.20123763        4.81321672        0.99072877
  |   22: Species W             0.20025496        6.72318478        2.66552721
  |   23: Species W            -1.63362857        9.40730530        2.66557980
  |   24: Species Se            0.04600834       10.27667514        4.34037438
  |   25: Species Se            0.04603885       10.27666447        0.99081396
  |   26: Species W            -3.31102655       12.27168441        2.66555843
  |   27: Species Se           -1.66219192       13.21085424        4.34916899
  |   28: Species Se           -1.66216887       13.21080169        0.98193974
  |   29: Species W             6.53624890        0.88782014        2.66552410
  |   30: Species Se            8.18276300        1.83840139        4.34991475
  |   31: Species Se            8.18281545        1.83840183        0.98119069
  |   32: Species W             4.87020122        3.78014076        2.66550707
  |   33: Species Se            6.52503268        4.69760194        4.35032907
  |   34: Species Se            6.52510305        4.69761628        0.98076156
  |   35: Species W             3.01610688        6.72317342        2.66553739
  |   36: Species Se            4.76255443        7.51798038        4.34042897
  |   37: Species Se            4.76254368        7.51805683        0.99074213
  |   38: Species W             1.60778522        9.16149352        2.66562114
  |   39: Species Se            3.16930762       10.27656450        4.34048345
  |   40: Species Se            3.16931410       10.27661302        0.99079780
  |   41: Species W            -0.01462607       12.23837416        2.66558743
  |   42: Species Se            1.60730130       13.21277357        4.35041599
  |   43: Species Se            1.60735034       13.21274122        0.98079931
  |   44: Species W             9.83061654        0.88270193        2.66558575
  |   45: Species Se           11.47828994        1.83840718        4.34995257
  |   46: Species Se           11.47830131        1.83838969        0.98123046
  |   47: Species W             8.17859669        3.74315110        2.66556356
  |   48: Species Se            9.83017240        4.69206718        4.34994246
  |   49: Species Se            9.83018849        4.69211175        0.98123440
  |   50: Species W             6.49182799        6.58950020        2.66557187
  |   51: Species Se            8.15782086        7.52977807        4.34923114
  |   52: Species Se            8.15789351        7.52984070        0.98202855
  |   53: Species W             4.84911800        9.40727408        2.66563166
  |   54: Species Se            6.51228076       10.36739713        4.34891356
  |   55: Species Se            6.51232012       10.36743764        0.98241815
  |   56: Species W             3.22937566       12.23830901        2.66564619
  |   57: Species Se            4.87680718       13.21081929        4.34924562
  |   58: Species Se            4.87681542       13.21076533        0.98203523
  |   59: Species W            13.12497613        0.88781807        2.66560209
  |   60: Species Se           14.77205713        1.86735549        4.34916706
  |   61: Species Se           14.77200721        1.86731618        0.98194774
  |   62: Species W            11.48192099        3.74316071        2.66557316
  |   63: Species Se           13.13531715        4.69761434        4.35035989
  |   64: Species Se           13.13526965        4.69763672        0.98076196
  |   65: Species W             9.82989199        6.59331441        2.66562143
  |   66: Species Se           11.50178835        7.52978884        4.34921798
  |   67: Species Se           11.50174718        7.52981218        0.98199934
  |   68: Species W             8.16858425        9.42730171        2.66566542
  |   69: Species Se            9.82944213       10.37595630        4.34592606
  |   70: Species Se            9.82940415       10.37591880        0.98534829
  |   71: Species W             6.52581384       12.27169200        2.66565212
  |   72: Species Se            8.17789667       13.23558637        4.34588407
  |   73: Species Se            8.17784936       13.23550422        0.98532532

  Lattice parameters for 3D lattice (in Angstroms) :    16.443476   16.443220   99.637489
  Angle(s) between unit vectors (in degrees)       :    90.000000   90.000000  120.007894


  Quantities derived from the lattice vectors:
  | Reciprocal lattice vector 1:  0.382108  0.220680  0.000000
  | Reciprocal lattice vector 2: -0.000000  0.441262  0.000000
  | Reciprocal lattice vector 3:  0.000000  0.000000  0.063060
  | Unit cell volume                               :   0.233292E+05  A^3

  Fractional coordinates:
                         L1                L2                L3
       atom_frac         0.02989034        0.06384358        0.02675251  W
       atom_frac         0.16362696        0.13154569        0.04364607  Se
       atom_frac         0.16362283        0.13154259        0.00985796  Se
       atom_frac         0.03223470        0.26548296        0.02675234  W
       atom_frac         0.17000526        0.33803331        0.04356140  Se
       atom_frac         0.17000329        0.33803441        0.00994275  Se
       atom_frac         0.03223303        0.46277072        0.02675276  W
       atom_frac         0.17000285        0.52798067        0.04356126  Se
       atom_frac         0.17000124        0.52798266        0.00994393  Se
       atom_frac         0.02989176        0.66207047        0.02675319  W
       atom_frac         0.16362982        0.72809388        0.04364666  Se
       atom_frac         0.16362687        0.72809160        0.00985910  Se
       atom_frac         0.02913936        0.86258068        0.02675302  W
       atom_frac         0.16303013        0.92952312        0.04361636  Se
       atom_frac         0.16302539        0.92951740        0.00988862  Se
       atom_frac         0.22965160        0.06384213        0.02675202  W
       atom_frac         0.36290753        0.13113864        0.04364945  Se
       atom_frac         0.36290841        0.13113776        0.00985448  Se
       atom_frac         0.23104947        0.26640466        0.02675175  W
       atom_frac         0.36373175        0.33802574        0.04356067  Se
       atom_frac         0.36373295        0.33802784        0.00994333  Se
       atom_frac         0.24831263        0.47216316        0.02675225  W
       atom_frac         0.23105881        0.66066650        0.02675278  W
       atom_frac         0.36373925        0.72172156        0.04356166  Se
       atom_frac         0.36374073        0.72172081        0.00994419  Se
       atom_frac         0.22965267        0.86182924        0.02675257  W
       atom_frac         0.36291143        0.92778629        0.04364993  Se
       atom_frac         0.36291099        0.92778260        0.00985512  Se
       atom_frac         0.42868037        0.06235080        0.02675222  W
       atom_frac         0.56219880        0.12910926        0.04365741  Se
       atom_frac         0.56220201        0.12910929        0.00984761  Se
       atom_frac         0.42894587        0.26547585        0.02675205  W
       atom_frac         0.56180686        0.32990831        0.04366157  Se
       atom_frac         0.56181164        0.32990932        0.00984330  Se
       atom_frac         0.41955655        0.47216236        0.02675235  W
       atom_frac         0.55368121        0.52798093        0.04356221  Se
       atom_frac         0.55368325        0.52798630        0.00994347  Se
       atom_frac         0.41954993        0.64340336        0.02675319  W
       atom_frac         0.55367691        0.72171379        0.04356275  Se
       atom_frac         0.55367901        0.72171719        0.00994403  Se
       atom_frac         0.42895134        0.85948989        0.02675286  W
       atom_frac         0.56181109        0.92792108        0.04366244  Se
       atom_frac         0.56181294        0.92791881        0.00984368  Se
       atom_frac         0.62884558        0.06199135        0.02675284  W
       atom_frac         0.76261448        0.12910967        0.04365779  Se
       atom_frac         0.76261455        0.12910844        0.00984800  Se
       atom_frac         0.62884477        0.26287810        0.02675262  W
       atom_frac         0.76261254        0.32951961        0.04365769  Se
       atom_frac         0.76261508        0.32952274        0.00984804  Se
       atom_frac         0.62623551        0.46277461        0.02675270  W
       atom_frac         0.76057665        0.52880947        0.04365055  Se
       atom_frac         0.76058326        0.52881387        0.00985601  Se
       atom_frac         0.62530201        0.66066431        0.02675330  W
       atom_frac         0.76016805        0.72809288        0.04364736  Se
       atom_frac         0.76017187        0.72809572        0.00985992  Se
       atom_frac         0.62623105        0.85948532        0.02675345  W
       atom_frac         0.76057547        0.92778383        0.04365069  Se
       atom_frac         0.76057408        0.92778004        0.00985608  Se
       atom_frac         0.82936975        0.06235066        0.02675300  W
       atom_frac         0.96393967        0.13114268        0.04364991  Se
       atom_frac         0.96393525        0.13113992        0.00985520  Se
       atom_frac         0.82973477        0.26287877        0.02675271  W
       atom_frac         0.96380774        0.32990919        0.04366188  Se
       atom_frac         0.96380564        0.32991076        0.00984330  Se
       atom_frac         0.82937181        0.46304248        0.02675320  W
       atom_frac         0.96393838        0.52881023        0.04365042  Se
       atom_frac         0.96393670        0.52881187        0.00985572  Se
       atom_frac         0.82787676        0.66207083        0.02675364  W
       atom_frac         0.96219983        0.72869398        0.04361738  Se
       atom_frac         0.96219620        0.72869135        0.00988933  Se
       atom_frac         0.82787443        0.86182978        0.02675351  W
       atom_frac         0.96219911        0.92952320        0.04361696  Se
       atom_frac         0.96219334        0.92951743        0.00988910  Se

  Initial moments and charges:
  |  Atom   Moment         Charge        Species
  |     1   0.100000E+01   0.000000E+00   W
  |     2   0.100000E+01   0.000000E+00   Se
  |     3   0.100000E+01   0.000000E+00   Se
  |     4   0.100000E+01   0.000000E+00   W
  |     5   0.100000E+01   0.000000E+00   Se
  |     6   0.100000E+01   0.000000E+00   Se
  |     7   0.100000E+01   0.000000E+00   W
  |     8   0.100000E+01   0.000000E+00   Se
  |     9   0.100000E+01   0.000000E+00   Se
  |    10   0.100000E+01   0.000000E+00   W
  |    11   0.100000E+01   0.000000E+00   Se
  |    12   0.100000E+01   0.000000E+00   Se
  |    13   0.100000E+01   0.000000E+00   W
  |    14   0.100000E+01   0.000000E+00   Se
  |    15   0.100000E+01   0.000000E+00   Se
  |    16   0.100000E+01   0.000000E+00   W
  |    17   0.100000E+01   0.000000E+00   Se
  |    18   0.100000E+01   0.000000E+00   Se
  |    19   0.100000E+01   0.000000E+00   W
  |    20   0.100000E+01   0.000000E+00   Se
  |    21   0.100000E+01   0.000000E+00   Se
  |    22   0.100000E+01   0.000000E+00   W
  |    23   0.100000E+01   0.000000E+00   W
  |    24   0.100000E+01   0.000000E+00   Se
  |    25   0.100000E+01   0.000000E+00   Se
  |    26   0.100000E+01   0.000000E+00   W
  |    27   0.100000E+01   0.000000E+00   Se
  |    28   0.100000E+01   0.000000E+00   Se
  |    29   0.100000E+01   0.000000E+00   W
  |    30   0.100000E+01   0.000000E+00   Se
  |    31   0.100000E+01   0.000000E+00   Se
  |    32   0.100000E+01   0.000000E+00   W
  |    33   0.100000E+01   0.000000E+00   Se
  |    34   0.100000E+01   0.000000E+00   Se
  |    35   0.100000E+01   0.000000E+00   W
  |    36   0.100000E+01   0.000000E+00   Se
  |    37   0.100000E+01   0.000000E+00   Se
  |    38   0.100000E+01   0.000000E+00   W
  |    39   0.100000E+01   0.000000E+00   Se
  |    40   0.100000E+01   0.000000E+00   Se
  |    41   0.100000E+01   0.000000E+00   W
  |    42   0.100000E+01   0.000000E+00   Se
  |    43   0.100000E+01   0.000000E+00   Se
  |    44   0.100000E+01   0.000000E+00   W
  |    45   0.100000E+01   0.000000E+00   Se
  |    46   0.100000E+01   0.000000E+00   Se
  |    47   0.100000E+01   0.000000E+00   W
  |    48   0.100000E+01   0.000000E+00   Se
  |    49   0.100000E+01   0.000000E+00   Se
  |    50   0.100000E+01   0.000000E+00   W
  |    51   0.100000E+01   0.000000E+00   Se
  |    52   0.100000E+01   0.000000E+00   Se
  |    53   0.100000E+01   0.000000E+00   W
  |    54   0.100000E+01   0.000000E+00   Se
  |    55   0.100000E+01   0.000000E+00   Se
  |    56   0.100000E+01   0.000000E+00   W
  |    57   0.100000E+01   0.000000E+00   Se
  |    58   0.100000E+01   0.000000E+00   Se
  |    59   0.100000E+01   0.000000E+00   W
  |    60   0.100000E+01   0.000000E+00   Se
  |    61   0.100000E+01   0.000000E+00   Se
  |    62   0.100000E+01   0.000000E+00   W
  |    63   0.100000E+01   0.000000E+00   Se
  |    64   0.100000E+01   0.000000E+00   Se
  |    65   0.100000E+01   0.000000E+00   W
  |    66   0.100000E+01   0.000000E+00   Se
  |    67   0.100000E+01   0.000000E+00   Se
  |    68   0.100000E+01   0.000000E+00   W
  |    69   0.100000E+01   0.000000E+00   Se
  |    70   0.100000E+01   0.000000E+00   Se
  |    71   0.100000E+01   0.000000E+00   W
  |    72   0.100000E+01   0.000000E+00   Se
  |    73   0.100000E+01   0.000000E+00   Se

 
  Finished reading input file 'control.in'.
 

------------------------------------------------------------
          Reading geometry description geometry.in.
------------------------------------------------------------
 
  Consistency checks for stacksize environment parameter are next.
 
  | Maximum stacksize for task 0: unlimited
  | Maximum stacksize for task 1: unlimited
  | Maximum stacksize for task 2: unlimited
  | Maximum stacksize for task 3: unlimited
  | Maximum stacksize for task 4: unlimited
  | Maximum stacksize for task 5: unlimited
  | Maximum stacksize for task 6: unlimited
  | Maximum stacksize for task 7: unlimited
  | Maximum stacksize for task 8: unlimited
  | Maximum stacksize for task 9: unlimited
  | Maximum stacksize for task 10: unlimited
  | Maximum stacksize for task 11: unlimited
  | Maximum stacksize for task 12: unlimited
  | Maximum stacksize for task 13: unlimited
  | Maximum stacksize for task 14: unlimited
  | Maximum stacksize for task 15: unlimited
  | Maximum stacksize for task 16: unlimited
  | Maximum stacksize for task 17: unlimited
  | Maximum stacksize for task 18: unlimited
  | Maximum stacksize for task 19: unlimited
  | Maximum stacksize for task 20: unlimited
  | Maximum stacksize for task 21: unlimited
  | Maximum stacksize for task 22: unlimited
  | Maximum stacksize for task 23: unlimited
  | Maximum stacksize for task 24: unlimited
  | Maximum stacksize for task 25: unlimited
  | Maximum stacksize for task 26: unlimited
  | Maximum stacksize for task 27: unlimited
  | Maximum stacksize for task 28: unlimited
  | Maximum stacksize for task 29: unlimited
  | Maximum stacksize for task 30: unlimited
  | Maximum stacksize for task 31: unlimited
  | Maximum stacksize for task 32: unlimited
  | Maximum stacksize for task 33: unlimited
  | Maximum stacksize for task 34: unlimited
  | Maximum stacksize for task 35: unlimited
  | Maximum stacksize for task 36: unlimited
  | Maximum stacksize for task 37: unlimited
  | Maximum stacksize for task 38: unlimited
  | Maximum stacksize for task 39: unlimited
  | Maximum stacksize for task 40: unlimited
  | Maximum stacksize for task 41: unlimited
  | Maximum stacksize for task 42: unlimited
  | Maximum stacksize for task 43: unlimited
  | Maximum stacksize for task 44: unlimited
  | Maximum stacksize for task 45: unlimited
  | Maximum stacksize for task 46: unlimited
  | Maximum stacksize for task 47: unlimited
  | Maximum stacksize for task 48: unlimited
  | Maximum stacksize for task 49: unlimited
  | Maximum stacksize for task 50: unlimited
  | Maximum stacksize for task 51: unlimited
  | Maximum stacksize for task 52: unlimited
  | Maximum stacksize for task 53: unlimited
  | Maximum stacksize for task 54: unlimited
  | Maximum stacksize for task 55: unlimited
  | Maximum stacksize for task 56: unlimited
  | Maximum stacksize for task 57: unlimited
  | Maximum stacksize for task 58: unlimited
  | Maximum stacksize for task 59: unlimited
  | Maximum stacksize for task 60: unlimited
  | Maximum stacksize for task 61: unlimited
  | Maximum stacksize for task 62: unlimited
  | Maximum stacksize for task 63: unlimited
  | Maximum stacksize for task 64: unlimited
  | Maximum stacksize for task 65: unlimited
  | Maximum stacksize for task 66: unlimited
  | Maximum stacksize for task 67: unlimited
  | Maximum stacksize for task 68: unlimited
  | Maximum stacksize for task 69: unlimited
  | Maximum stacksize for task 70: unlimited
  | Maximum stacksize for task 71: unlimited
  | Maximum stacksize for task 72: unlimited
  | Maximum stacksize for task 73: unlimited
  | Maximum stacksize for task 74: unlimited
  | Maximum stacksize for task 75: unlimited
  | Maximum stacksize for task 76: unlimited
  | Maximum stacksize for task 77: unlimited
  | Maximum stacksize for task 78: unlimited
  | Maximum stacksize for task 79: unlimited
  | Maximum stacksize for task 80: unlimited
  | Maximum stacksize for task 81: unlimited
  | Maximum stacksize for task 82: unlimited
  | Maximum stacksize for task 83: unlimited
  | Maximum stacksize for task 84: unlimited
  | Maximum stacksize for task 85: unlimited
  | Maximum stacksize for task 86: unlimited
  | Maximum stacksize for task 87: unlimited
  | Maximum stacksize for task 88: unlimited
  | Maximum stacksize for task 89: unlimited
  | Maximum stacksize for task 90: unlimited
  | Maximum stacksize for task 91: unlimited
  | Maximum stacksize for task 92: unlimited
  | Maximum stacksize for task 93: unlimited
  | Maximum stacksize for task 94: unlimited
  | Maximum stacksize for task 95: unlimited
  | Maximum stacksize for task 96: unlimited
  | Maximum stacksize for task 97: unlimited
  | Maximum stacksize for task 98: unlimited
  | Maximum stacksize for task 99: unlimited
  | Maximum stacksize for task 100: unlimited
  | Maximum stacksize for task 101: unlimited
  | Maximum stacksize for task 102: unlimited
  | Maximum stacksize for task 103: unlimited
  | Maximum stacksize for task 104: unlimited
  | Maximum stacksize for task 105: unlimited
  | Maximum stacksize for task 106: unlimited
  | Maximum stacksize for task 107: unlimited
  | Maximum stacksize for task 108: unlimited
  | Maximum stacksize for task 109: unlimited
  | Maximum stacksize for task 110: unlimited
  | Maximum stacksize for task 111: unlimited
  | Maximum stacksize for task 112: unlimited
  | Maximum stacksize for task 113: unlimited
  | Maximum stacksize for task 114: unlimited
  | Maximum stacksize for task 115: unlimited
  | Maximum stacksize for task 116: unlimited
  | Maximum stacksize for task 117: unlimited
  | Maximum stacksize for task 118: unlimited
  | Maximum stacksize for task 119: unlimited
  | Maximum stacksize for task 120: unlimited
  | Maximum stacksize for task 121: unlimited
  | Maximum stacksize for task 122: unlimited
  | Maximum stacksize for task 123: unlimited
  | Maximum stacksize for task 124: unlimited
  | Maximum stacksize for task 125: unlimited
  | Maximum stacksize for task 126: unlimited
  | Maximum stacksize for task 127: unlimited
  | Maximum stacksize for task 128: unlimited
  | Maximum stacksize for task 129: unlimited
  | Maximum stacksize for task 130: unlimited
  | Maximum stacksize for task 131: unlimited
  | Maximum stacksize for task 132: unlimited
  | Maximum stacksize for task 133: unlimited
  | Maximum stacksize for task 134: unlimited
  | Maximum stacksize for task 135: unlimited
  | Maximum stacksize for task 136: unlimited
  | Maximum stacksize for task 137: unlimited
  | Maximum stacksize for task 138: unlimited
  | Maximum stacksize for task 139: unlimited
  | Maximum stacksize for task 140: unlimited
  | Maximum stacksize for task 141: unlimited
  | Maximum stacksize for task 142: unlimited
  | Maximum stacksize for task 143: unlimited
  | Maximum stacksize for task 144: unlimited
  | Maximum stacksize for task 145: unlimited
  | Maximum stacksize for task 146: unlimited
  | Maximum stacksize for task 147: unlimited
  | Maximum stacksize for task 148: unlimited
  | Maximum stacksize for task 149: unlimited
  | Maximum stacksize for task 150: unlimited
  | Maximum stacksize for task 151: unlimited
  | Maximum stacksize for task 152: unlimited
  | Maximum stacksize for task 153: unlimited
  | Maximum stacksize for task 154: unlimited
  | Maximum stacksize for task 155: unlimited
  | Maximum stacksize for task 156: unlimited
  | Maximum stacksize for task 157: unlimited
  | Maximum stacksize for task 158: unlimited
  | Maximum stacksize for task 159: unlimited
  | Current stacksize for task 0: unlimited
  | Current stacksize for task 1: unlimited
  | Current stacksize for task 2: unlimited
  | Current stacksize for task 3: unlimited
  | Current stacksize for task 4: unlimited
  | Current stacksize for task 5: unlimited
  | Current stacksize for task 6: unlimited
  | Current stacksize for task 7: unlimited
  | Current stacksize for task 8: unlimited
  | Current stacksize for task 9: unlimited
  | Current stacksize for task 10: unlimited
  | Current stacksize for task 11: unlimited
  | Current stacksize for task 12: unlimited
  | Current stacksize for task 13: unlimited
  | Current stacksize for task 14: unlimited
  | Current stacksize for task 15: unlimited
  | Current stacksize for task 16: unlimited
  | Current stacksize for task 17: unlimited
  | Current stacksize for task 18: unlimited
  | Current stacksize for task 19: unlimited
  | Current stacksize for task 20: unlimited
  | Current stacksize for task 21: unlimited
  | Current stacksize for task 22: unlimited
  | Current stacksize for task 23: unlimited
  | Current stacksize for task 24: unlimited
  | Current stacksize for task 25: unlimited
  | Current stacksize for task 26: unlimited
  | Current stacksize for task 27: unlimited
  | Current stacksize for task 28: unlimited
  | Current stacksize for task 29: unlimited
  | Current stacksize for task 30: unlimited
  | Current stacksize for task 31: unlimited
  | Current stacksize for task 32: unlimited
  | Current stacksize for task 33: unlimited
  | Current stacksize for task 34: unlimited
  | Current stacksize for task 35: unlimited
  | Current stacksize for task 36: unlimited
  | Current stacksize for task 37: unlimited
  | Current stacksize for task 38: unlimited
  | Current stacksize for task 39: unlimited
  | Current stacksize for task 40: unlimited
  | Current stacksize for task 41: unlimited
  | Current stacksize for task 42: unlimited
  | Current stacksize for task 43: unlimited
  | Current stacksize for task 44: unlimited
  | Current stacksize for task 45: unlimited
  | Current stacksize for task 46: unlimited
  | Current stacksize for task 47: unlimited
  | Current stacksize for task 48: unlimited
  | Current stacksize for task 49: unlimited
  | Current stacksize for task 50: unlimited
  | Current stacksize for task 51: unlimited
  | Current stacksize for task 52: unlimited
  | Current stacksize for task 53: unlimited
  | Current stacksize for task 54: unlimited
  | Current stacksize for task 55: unlimited
  | Current stacksize for task 56: unlimited
  | Current stacksize for task 57: unlimited
  | Current stacksize for task 58: unlimited
  | Current stacksize for task 59: unlimited
  | Current stacksize for task 60: unlimited
  | Current stacksize for task 61: unlimited
  | Current stacksize for task 62: unlimited
  | Current stacksize for task 63: unlimited
  | Current stacksize for task 64: unlimited
  | Current stacksize for task 65: unlimited
  | Current stacksize for task 66: unlimited
  | Current stacksize for task 67: unlimited
  | Current stacksize for task 68: unlimited
  | Current stacksize for task 69: unlimited
  | Current stacksize for task 70: unlimited
  | Current stacksize for task 71: unlimited
  | Current stacksize for task 72: unlimited
  | Current stacksize for task 73: unlimited
  | Current stacksize for task 74: unlimited
  | Current stacksize for task 75: unlimited
  | Current stacksize for task 76: unlimited
  | Current stacksize for task 77: unlimited
  | Current stacksize for task 78: unlimited
  | Current stacksize for task 79: unlimited
  | Current stacksize for task 80: unlimited
  | Current stacksize for task 81: unlimited
  | Current stacksize for task 82: unlimited
  | Current stacksize for task 83: unlimited
  | Current stacksize for task 84: unlimited
  | Current stacksize for task 85: unlimited
  | Current stacksize for task 86: unlimited
  | Current stacksize for task 87: unlimited
  | Current stacksize for task 88: unlimited
  | Current stacksize for task 89: unlimited
  | Current stacksize for task 90: unlimited
  | Current stacksize for task 91: unlimited
  | Current stacksize for task 92: unlimited
  | Current stacksize for task 93: unlimited
  | Current stacksize for task 94: unlimited
  | Current stacksize for task 95: unlimited
  | Current stacksize for task 96: unlimited
  | Current stacksize for task 97: unlimited
  | Current stacksize for task 98: unlimited
  | Current stacksize for task 99: unlimited
  | Current stacksize for task 100: unlimited
  | Current stacksize for task 101: unlimited
  | Current stacksize for task 102: unlimited
  | Current stacksize for task 103: unlimited
  | Current stacksize for task 104: unlimited
  | Current stacksize for task 105: unlimited
  | Current stacksize for task 106: unlimited
  | Current stacksize for task 107: unlimited
  | Current stacksize for task 108: unlimited
  | Current stacksize for task 109: unlimited
  | Current stacksize for task 110: unlimited
  | Current stacksize for task 111: unlimited
  | Current stacksize for task 112: unlimited
  | Current stacksize for task 113: unlimited
  | Current stacksize for task 114: unlimited
  | Current stacksize for task 115: unlimited
  | Current stacksize for task 116: unlimited
  | Current stacksize for task 117: unlimited
  | Current stacksize for task 118: unlimited
  | Current stacksize for task 119: unlimited
  | Current stacksize for task 120: unlimited
  | Current stacksize for task 121: unlimited
  | Current stacksize for task 122: unlimited
  | Current stacksize for task 123: unlimited
  | Current stacksize for task 124: unlimited
  | Current stacksize for task 125: unlimited
  | Current stacksize for task 126: unlimited
  | Current stacksize for task 127: unlimited
  | Current stacksize for task 128: unlimited
  | Current stacksize for task 129: unlimited
  | Current stacksize for task 130: unlimited
  | Current stacksize for task 131: unlimited
  | Current stacksize for task 132: unlimited
  | Current stacksize for task 133: unlimited
  | Current stacksize for task 134: unlimited
  | Current stacksize for task 135: unlimited
  | Current stacksize for task 136: unlimited
  | Current stacksize for task 137: unlimited
  | Current stacksize for task 138: unlimited
  | Current stacksize for task 139: unlimited
  | Current stacksize for task 140: unlimited
  | Current stacksize for task 141: unlimited
  | Current stacksize for task 142: unlimited
  | Current stacksize for task 143: unlimited
  | Current stacksize for task 144: unlimited
  | Current stacksize for task 145: unlimited
  | Current stacksize for task 146: unlimited
  | Current stacksize for task 147: unlimited
  | Current stacksize for task 148: unlimited
  | Current stacksize for task 149: unlimited
  | Current stacksize for task 150: unlimited
  | Current stacksize for task 151: unlimited
  | Current stacksize for task 152: unlimited
  | Current stacksize for task 153: unlimited
  | Current stacksize for task 154: unlimited
  | Current stacksize for task 155: unlimited
  | Current stacksize for task 156: unlimited
  | Current stacksize for task 157: unlimited
  | Current stacksize for task 158: unlimited
  | Current stacksize for task 159: unlimited
 
  Consistency checks for the contents of control.in are next.
 
  MPI_IN_PLACE appears to work with this MPI implementation.
  | Keeping use_mpi_in_place .true. (see manual).
  Target number of points in a grid batch is not set. Defaulting to  100
  Method for grid partitioning is not set. Defaulting to parallel hash+maxmin partitioning.
  Batch size limit is not set. Defaulting to    200
  By default, will store active basis functions for each batch.
  If in need of memory, prune_basis_once .false. can be used to disable this option.
  communication_type for Hartree potential was not specified.
  Defaulting to calc_hartree .
  Defaulting to Pulay charge density mixer.
  Pulay mixer: Number of relevant iterations not set.
  Defaulting to    8 iterations.
  Pulay mixer: Number of initial linear mixing iterations not set.
  Defaulting to    0 iterations.
  Work space size for distributed Hartree potential not set.
  Defaulting to   0.200000E+03 MB.
  Mixing parameter for charge density mixing has not been set.
  Using default: charge_mix_param =     0.0500.
  The mixing parameter will be adjusted in iteration number     2 of the first full s.c.f. cycle only.
  Mixing parameter for spin density mixing has not been set.
  Using charge_mix_param as default:     0.0500.
  Algorithm-dependent basis array size parameters:
  | n_max_pulay                         :        8
  Maximum number of self-consistency iterations not provided.
  Presetting  1000 iterations.
  Presetting      1001 iterations before the initial mixing cycle
  is restarted anyway using the sc_init_iter criterion / keyword.
  Presetting a factor      1.000 between actual scf density residual
  and density convergence criterion sc_accuracy_rho below which sc_init_iter
  takes no effect.
 * No s.c.f. convergence criteria (sc_accuracy_*) were provided in control.in.
 * The run will proceed with a reasonable default guess, but please check whether.
 * the s.c.f. cycles seem to take too much or too little time.
  Calculation of forces was not defined in control.in. No forces will be calculated.
  Geometry relaxation not requested: no relaxation will be performed.
 * Notice: The s.c.f. convergence criterion sc_accuracy_rho was not provided.
 * We used to stop in this case, and ask the user to provide reasonable
 * scf convergence criteria. However, this led some users to employ criteria
 * that led to extremely long run times, e.g., for simple relaxation.
 * We now preset a default value for sc_accuracy_rho if it is not set.
 * You may still wish to check if this setting is too tight or too loose for your needs.
 * Based on n_atoms and forces and force-correction status, FHI-aims chose sc_accuracy_rho =  0.348807E-05 .
  No accuracy limit for integral partition fn. given. Defaulting to  0.1000E-14.
  No threshold value for u(r) in integrations given. Defaulting to  0.1000E-05.
  No accuracy for occupation numbers given. Defaulting to  0.1000E-12.
  No threshold value for occupation numbers given. Defaulting to  0.0000E+00.
  No accuracy for fermi level given. Defaulting to  0.1000E-19.
  Maximum # of iterations to find E_F not set. Defaulting to  200.
  Preferred method for the eigenvalue solver ('KS_method') not specified in 'control.in'.
  Calling BLACS routine to test compilation state
  Since ScaLAPACK support is enabled, defaulting to ELPA (via ELSI).
  Will not use alltoall communication since running on < 1024 CPUs.
  Threshold for basis singularities not set.
  Default threshold for basis singularities:  0.1000E-04
  partition_type (choice of integration weights) for integrals was not specified.
  | Using a version of the partition function of Stratmann and coworkers ('stratmann_sparse').
  | At each grid point, the set of atoms used to build the partition table is smoothly restricted to
  | only those atoms whose free-atom density would be non-zero at that grid point.
  Partitioning for Hartree potential was not defined. Using partition_type for integrals.
  | Adjusted default value of keyword multip_moments_threshold to:       0.10000000E-11
  | This value may affect high angular momentum components of the Hartree potential in periodic systems.
  Angular momentum expansion for Kerker preconditioner not set explicitly.
  | Using default value of   0
  No explicit requirement for turning off preconditioner.
  | By default, it will be turned off when the charge convergence reaches
  | sc_accuracy_rho  =   0.348807E-05
  No special mixing parameter while Kerker preconditioner is on.
  Using default: charge_mix_param =     0.0500.
  No q(lm)/r^(l+1) cutoff set for long-range Hartree potential.
  | Using default value of  0.100000E-09 .
  | Verify using the multipole_threshold keyword.
  Defaulting to new monopole extrapolation.
  Density update method: automatic selection selected.
  Using density matrix based charge density update.
  Using density matrix based charge density update.
  Using packed matrix style: index .
  Defaulting to use full k-point grid (no symmetry reduction).
  Charge integration errors on the 3D integration grid will be compensated
  by explicit normalization and distribution of residual charges.
  Use the "compensate_multipole_errors" flag to change this behaviour.
 
  Consistency checks for the contents of geometry.in are next.
 

  Range separation radius for Ewald summation (hartree_convergence_parameter):      5.00000000 bohr.
  Structure-dependent array size parameters: 
  | Number of distinct atom types in initial rho :        2
  | Maximum number of distinct radial functions  :       57
  | Maximum number of basis functions            :     3257
  | Number of Kohn-Sham states (occupied + empty):     2033
------------------------------------------------------------

------------------------------------------------------------
          Preparing all fixed parts of the calculation.
------------------------------------------------------------
  Determining machine precision:
    2.225073858507201E-308
  Setting up grids for atomic and cluster calculations.

  Creating wave function, potential, and density for free atoms.

  Species: S

  List of occupied orbitals and eigenvalues:
    n    l              occ      energy [Ha]    energy [eV]
    1    0           2.0000       -88.680731     -2413.1255
    2    0           2.0000        -7.781719      -211.7513
    3    0           2.0000        -0.633662       -17.2428
    2    1           6.0000        -5.751976      -156.5192
    3    1           4.0000        -0.257086        -6.9957


  Species: Mo

  List of occupied orbitals and eigenvalues:
    n    l              occ      energy [Ha]    energy [eV]
    1    0           2.0000      -745.344654    -20281.8600
    2    0           2.0000      -103.288246     -2810.6162
    3    0           2.0000       -17.516687      -476.6533
    4    0           2.0000        -2.358559       -64.1796
    5    0           1.0000        -0.145159        -3.9500
    2    1           6.0000       -92.308627     -2511.8455
    3    1           6.0000       -13.936005      -379.2180
    4    1           6.0000        -1.408138       -38.3174
    3    2          10.0000        -8.119011      -220.9295
    4    2           5.0000        -0.132984        -3.6187


  Species: W

  List of occupied orbitals and eigenvalues:
    n    l              occ      energy [Ha]    energy [eV]
    1    0           2.0000     -2764.899999    -75236.7570
    2    0           2.0000      -447.822848    -12185.8797
    3    0           2.0000      -101.923634     -2773.4832
    4    0           2.0000       -20.945301      -569.9506
    5    0           2.0000        -2.899582       -78.9016
    6    0           2.0000        -0.207066        -5.6345
    2    1           6.0000      -391.021390    -10640.2334
    3    1           6.0000       -85.417793     -2324.3364
    4    1           6.0000       -15.562838      -423.4864
    5    1           6.0000        -1.582233       -43.0547
    3    2          10.0000       -66.517936     -1810.0451
    4    2          10.0000        -8.758436      -238.3292
    5    2           4.0000        -0.161873        -4.4048
    4    3          14.0000        -1.221948       -33.2509


  Species: Se

  List of occupied orbitals and eigenvalues:
    n    l              occ      energy [Ha]    energy [eV]
    1    0           2.0000      -466.337810    -12689.6975
    2    0           2.0000       -59.202598     -1610.9847
    3    0           2.0000        -7.847116      -213.5309
    4    0           2.0000        -0.634372       -17.2621
    2    1           6.0000       -52.061107     -1416.6548
    3    1           6.0000        -5.620941      -152.9536
    4    1           4.0000        -0.238469        -6.4891
    3    2          10.0000        -1.951949       -53.1152

  Spin-polarized or charged system:
  Charge density initialized according to selected moments and charges.

  Creating spin-polarized density from free atoms.

  Species: W
  Charge:   0.000000
  Moment:   1.000000

  List of occupied orbitals and eigenvalues:
    n    l      energy [Ha]    energy [eV]    occupation
  Spin-up
    1    0     -2764.899000    -75236.7298     1.00000000
    2    0      -447.822681    -12185.8752     1.00000000
    3    0      -101.922923     -2773.4638     1.00000000
    4    0       -20.945058      -569.9440     1.00000000
    5    0        -2.905627       -79.0661     1.00000000
    6    0        -0.213317        -5.8046     1.00000000
    2    1      -391.021066    -10640.2246     3.00000000
    3    1       -85.417117     -2324.3180     3.00000000
    4    1       -15.562543      -423.4783     3.00000000
    5    1        -1.590642       -43.2836     3.00000000
    3    2       -66.517516     -1810.0337     5.00000000
    4    2        -8.758257      -238.3243     5.00000000
    5    2        -0.171822        -4.6755     2.50000000
    4    3        -1.222659       -33.2703     7.00000000
  Spin-down
    1    0     -2764.899056    -75236.7313     1.00000000
    2    0      -447.821174    -12185.8342     1.00000000
[...]
  |    22       73.904117        0.095883       10.498574       24.712801       24.607498       14.075569        0.009675
  |    23       73.953299        0.046701       10.417071       24.751064       24.668278       14.105227        0.011658
  |    24       34.036547       -0.036547        7.873072       15.919497       10.198767        0.045211
  |    25       34.036543       -0.036543        7.873072       15.919493       10.198766        0.045211
  |    26       73.916204        0.083796       10.411995       24.742480       24.647392       14.102999        0.011338
  |    27       34.046758       -0.046758        7.871037       15.935191       10.194673        0.045858
  |    28       34.046761       -0.046761        7.871037       15.935199       10.194668        0.045856
  |    29       73.908470        0.091530       10.410037       24.738674       24.647309       14.101257        0.011193
  |    30       34.044602       -0.044602        7.870798       15.929163       10.197899        0.046743
  |    31       34.044604       -0.044604        7.870799       15.929170       10.197894        0.046741
  |    32       73.919986        0.080014       10.411466       24.734274       24.665180       14.098093        0.010972
  |    33       34.044936       -0.044936        7.870392       15.925973       10.201214        0.047357
  |    34       34.044941       -0.044941        7.870394       15.925984       10.201208        0.047355
  |    35       73.904013        0.095987       10.498560       24.712780       24.607423       14.075574        0.009675
  |    36       34.036499       -0.036499        7.873090       15.919450       10.198752        0.045208
  |    37       34.036505       -0.036505        7.873088       15.919458       10.198752        0.045207
  |    38       73.902532        0.097468       10.497532       24.712550       24.607211       14.075564        0.009675
  |    39       34.036544       -0.036544        7.873077       15.919516       10.198745        0.045206
  |    40       34.036535       -0.036535        7.873074       15.919498       10.198755        0.045209
  |    41       73.920429        0.079571       10.411756       24.734323       24.665285       14.098093        0.010972
  |    42       34.044789       -0.044789        7.870357       15.925869       10.201209        0.047355
  |    43       34.044787       -0.044787        7.870355       15.925864       10.201212        0.047356
  |    44       73.907997        0.092003       10.407575       24.738261       24.649241       14.101667        0.011253
  |    45       34.044607       -0.044607        7.870800       15.929171       10.197894        0.046741
  |    46       34.044607       -0.044607        7.870798       15.929169       10.197897        0.046742
  |    47       73.907970        0.092030       10.407538       24.738293       24.649217       14.101670        0.011253
  |    48       34.044662       -0.044662        7.870816       15.929204       10.197899        0.046743
  |    49       34.044660       -0.044660        7.870815       15.929199       10.197902        0.046744
  |    50       73.920285        0.079715       10.411638       24.734364       24.665224       14.098087        0.010972
  |    51       34.046839       -0.046839        7.871071       15.935240       10.194672        0.045856
  |    52       34.046838       -0.046838        7.871068       15.935231       10.194681        0.045858
  |    53       73.953344        0.046656       10.417081       24.751077       24.668308       14.105221        0.011657
  |    54       34.043107       -0.043107        7.871541       15.932657       10.193650        0.045259
  |    55       34.043101       -0.043101        7.871535       15.932639       10.193665        0.045262
  |    56       73.920435        0.079565       10.411767       24.734323       24.665284       14.098089        0.010972
  |    57       34.046755       -0.046755        7.871039       15.935203       10.194659        0.045854
  |    58       34.046749       -0.046749        7.871035       15.935190       10.194667        0.045856
  |    59       73.908465        0.091535       10.410040       24.738674       24.647303       14.101255        0.011193
  |    60       34.046742       -0.046742        7.871022       15.935193       10.194670        0.045857
  |    61       34.046746       -0.046746        7.871024       15.935201       10.194665        0.045856
  |    62       73.907964        0.092036       10.407539       24.738289       24.649214       14.101668        0.011253
  |    63       34.044943       -0.044943        7.870391       15.925974       10.201220        0.047358
  |    64       34.044947       -0.044947        7.870392       15.925978       10.201219        0.047358
  |    65       73.908319        0.091681       10.409886       24.738735       24.647245       14.101258        0.011193
  |    66       34.046832       -0.046832        7.871069       15.935233       10.194674        0.045857
  |    67       34.046832       -0.046832        7.871068       15.935224       10.194681        0.045859
  |    68       73.916138        0.083862       10.411928       24.742509       24.647362       14.103000        0.011338
  |    69       34.042136       -0.042136        7.871042       15.929810       10.195298        0.045986
  |    70       34.042134       -0.042134        7.871040       15.929796       10.195310        0.045989
  |    71       73.916202        0.083798       10.411999       24.742488       24.647375       14.103002        0.011338
  |    72       34.042106       -0.042106        7.871027       15.929796       10.195297        0.045986
  |    73       34.042105       -0.042105        7.871026       15.929791       10.195302        0.045987
  |
  | Total     3482.000000       -0.000000
 
  Summary of the per-atom spin analysis:
  |
  |  atom   spin      l=0         l=1         l=2         l=3         l=4
  |     1   -0.000000   -0.000000   -0.000000   -0.000000   -0.000000    0.000000
  |     2   -0.000000   -0.000000   -0.000000    0.000000    0.000000
  |     3   -0.000000   -0.000000   -0.000000    0.000000    0.000000
  |     4   -0.000002   -0.000000   -0.000000   -0.000001   -0.000000    0.000000
  |     5   -0.000000   -0.000000   -0.000000    0.000000    0.000000
  |     6   -0.000000   -0.000000   -0.000000    0.000000    0.000000
  |     7   -0.000002   -0.000000   -0.000000   -0.000001   -0.000000    0.000000
  |     8   -0.000000   -0.000000   -0.000000    0.000000    0.000000
  |     9   -0.000000   -0.000000   -0.000000    0.000000    0.000000
  |    10   -0.000000   -0.000000   -0.000000   -0.000000   -0.000000    0.000000
  |    11   -0.000000   -0.000000   -0.000000    0.000000    0.000000
  |    12   -0.000000   -0.000000   -0.000000    0.000000    0.000000
  |    13   -0.000001   -0.000000   -0.000000   -0.000000   -0.000000    0.000000
  |    14    0.000000    0.000000    0.000000    0.000000   -0.000000
  |    15    0.000000    0.000000    0.000000    0.000000   -0.000000
  |    16   -0.000000   -0.000000   -0.000000   -0.000000   -0.000000    0.000000
  |    17    0.000000    0.000000    0.000000    0.000000   -0.000000
  |    18    0.000000    0.000000    0.000000    0.000000   -0.000000
  |    19    0.000004    0.000000    0.000001    0.000003    0.000000    0.000000
  |    20   -0.000000   -0.000000   -0.000000    0.000000    0.000000
  |    21   -0.000000   -0.000000   -0.000000    0.000000    0.000000
  |    22   -0.000001   -0.000000   -0.000000   -0.000001   -0.000000   -0.000000
  |    23    0.000004    0.000000    0.000001    0.000003    0.000000    0.000000
  |    24   -0.000000   -0.000000   -0.000000    0.000000    0.000000
  |    25   -0.000000   -0.000000   -0.000000    0.000000    0.000000
  |    26   -0.000001   -0.000000   -0.000000   -0.000000   -0.000000    0.000000
  |    27    0.000000    0.000000    0.000000    0.000000   -0.000000
  |    28    0.000000    0.000000    0.000000    0.000000   -0.000000
  |    29   -0.000000   -0.000000   -0.000000   -0.000000   -0.000000    0.000000
  |    30    0.000000    0.000000    0.000000    0.000000    0.000000
  |    31    0.000000    0.000000    0.000000    0.000000    0.000000
  |    32   -0.000002   -0.000000   -0.000000   -0.000001   -0.000000    0.000000
  |    33    0.000000    0.000000    0.000000    0.000000   -0.000000
  |    34    0.000000    0.000000    0.000000    0.000000   -0.000000
  |    35   -0.000001   -0.000000   -0.000000   -0.000001   -0.000000   -0.000000
  |    36   -0.000000   -0.000000   -0.000000    0.000000    0.000000
  |    37   -0.000000   -0.000000   -0.000000    0.000000    0.000000
  |    38   -0.000001   -0.000000   -0.000000   -0.000001   -0.000000   -0.000000
  |    39   -0.000000   -0.000000   -0.000000    0.000000    0.000000
  |    40   -0.000000   -0.000000   -0.000000    0.000000    0.000000
  |    41   -0.000002   -0.000000   -0.000000   -0.000001   -0.000000    0.000000
  |    42    0.000000    0.000000    0.000000    0.000000   -0.000000
  |    43    0.000000    0.000000    0.000000    0.000000   -0.000000
  |    44    0.000000   -0.000000    0.000000    0.000000   -0.000000   -0.000000
  |    45    0.000000    0.000000    0.000000    0.000000    0.000000
  |    46    0.000000    0.000000    0.000000    0.000000    0.000000
  |    47    0.000000   -0.000000    0.000000    0.000000   -0.000000   -0.000000
  |    48    0.000000    0.000000    0.000000    0.000000    0.000000
  |    49    0.000000    0.000000    0.000000    0.000000    0.000000
  |    50   -0.000002   -0.000000   -0.000000   -0.000001   -0.000000    0.000000
  |    51    0.000000    0.000000    0.000000    0.000000   -0.000000
  |    52    0.000000    0.000000    0.000000    0.000000   -0.000000
  |    53    0.000004    0.000000    0.000001    0.000003    0.000000    0.000000
  |    54   -0.000000   -0.000000   -0.000000    0.000000    0.000000
  |    55   -0.000000   -0.000000   -0.000000    0.000000    0.000000
  |    56   -0.000002   -0.000000   -0.000000   -0.000001   -0.000000    0.000000
  |    57    0.000000    0.000000    0.000000    0.000000   -0.000000
  |    58    0.000000    0.000000    0.000000    0.000000   -0.000000
  |    59   -0.000000   -0.000000   -0.000000   -0.000000   -0.000000    0.000000
  |    60    0.000000    0.000000    0.000000    0.000000   -0.000000
  |    61    0.000000    0.000000    0.000000    0.000000   -0.000000
  |    62    0.000000   -0.000000    0.000000    0.000000   -0.000000   -0.000000
  |    63    0.000000    0.000000    0.000000    0.000000   -0.000000
  |    64    0.000000    0.000000    0.000000    0.000000   -0.000000
  |    65   -0.000000   -0.000000   -0.000000   -0.000000   -0.000000    0.000000
  |    66    0.000000    0.000000    0.000000    0.000000   -0.000000
  |    67    0.000000    0.000000    0.000000    0.000000   -0.000000
  |    68   -0.000000   -0.000000   -0.000000   -0.000000   -0.000000    0.000000
  |    69    0.000000    0.000000    0.000000    0.000000   -0.000000
  |    70    0.000000    0.000000    0.000000    0.000000   -0.000000
  |    71   -0.000001   -0.000000   -0.000000   -0.000000   -0.000000    0.000000
  |    72    0.000000    0.000000    0.000000    0.000000   -0.000000
  |    73    0.000000    0.000000    0.000000    0.000000   -0.000000
  |
  | Total   -0.000000
 
  Calculating angular momentum projected density of states ...
  | Chemical potential is  -4.626813 eV.
  | writing   projected DOS (shifted by the chemical potential) for species S to file S_l_proj_dos_tetrahedron.dat.
  | writing   projected DOS (raw data) for species S to file S_l_proj_dos_tetrahedron_raw.dat.
  | writing   projected DOS (shifted by the chemical potential) for species Mo to file Mo_l_proj_dos_tetrahedron.dat.
  | writing   projected DOS (raw data) for species Mo to file Mo_l_proj_dos_tetrahedron_raw.dat.
  | writing   projected DOS (shifted by the chemical potential) for species W to file W_l_proj_dos_tetrahedron.dat.
  | writing   projected DOS (raw data) for species W to file W_l_proj_dos_tetrahedron_raw.dat.
  | writing   projected DOS (shifted by the chemical potential) for species Se to file Se_l_proj_dos_tetrahedron.dat.
  | writing   projected DOS (raw data) for species Se to file Se_l_proj_dos_tetrahedron_raw.dat.

  Mulliken analysis                                       :  max(cpu_time)    wall_clock(cpu1)
  | Time for Mulliken analysis (scalar relativistic)      :          2.456               2.491
  | Time for Mulliken analysis (spin-orbit coupled)       :          4.772               4.791
  | Total time for Mulliken analysis                      :          7.228               7.282
------------------------------------------------------------

------------------------------------------------------------------------------
  Final output of selected total energy values:

  The following output summarizes some interesting total energy values
  at the end of a run (AFTER all relaxation, molecular dynamics, etc.).

  | Total energy of the DFT / Hartree-Fock s.c.f. calculation      :      -14511759.278067945 eV
  | Final zero-broadening corrected energy (caution - metals only) :      -14511759.278067945 eV
  | Total energy after non-SC SOC correction (DO NOT USE)          :      -14511788.709621890 eV
  | For reference only, the value of 1 Hartree used in FHI-aims is :             27.211384500 eV
  | For reference only, the overall average (free atom contribution
  | + realspace contribution) of the electrostatic potential after
  | s.c.f. convergence is                                          :             -1.329197656 eV

  Before relying on these values, please be sure to understand exactly which
  total energy value is referred to by a given number. Different objects may
  all carry the same name 'total energy'. Definitions:

  Total energy of the DFT / Hartree-Fock s.c.f. calculation:
  | Note that this energy does not include ANY quantities calculated after the
  | s.c.f. cycle, in particular not ANY RPA, MP2, etc. many-body perturbation terms.

  Final zero-broadening corrected energy:
  | For metallic systems only, a broadening of the occupation numbers at the Fermi
  | level can be extrapolated back to zero broadening by an electron-gas inspired
  | formula. For all systems that are not real metals, this value can be
  | meaningless and should be avoided.

------------------------------------------------------------------------------
  Methods described in the following list of references were used in this FHI-aims run.
  If you publish the results, please make sure to cite these reference if they apply.
  FHI-aims is an academic code, and for our developers (often, Ph.D. students
  and postdocs), scientific credit in the community is essential.
  Thank you for helping us!

  For any use of FHI-aims, please cite:

    Volker Blum, Ralf Gehrke, Felix Hanke, Paula Havu, Ville Havu,
    Xinguo Ren, Karsten Reuter, and Matthias Scheffler
    'Ab initio molecular simulations with numeric atom-centered orbitals'
    Computer Physics Communications 180, 2175-2196 (2009)
    http://doi.org/10.1016/j.cpc.2009.06.022


  The provided symmetry information was generated with SPGlib:

    Atsushi Togo, Yusuke Seto, Dimitar Pashov
    SPGlib 1.7.3 obtained from http://spglib.sourceforge.net
    Copyright (C) 2008 Atsushi Togo


  For second-variational spin-orbit coupling used in your run, please cite:

    William P. Huhn and Volker Blum,
    'One-hundred-three compound band-structure benchmark of post-self-consistent'
    'spin-orbit coupling treatments in density functional theory'
    Phys. Rev. Materials 1, 033803 (2017).


  The ELSI infrastructure was used in your run to solve the Kohn-Sham electronic structure.
  Please check out http://elsi-interchange.org to learn more.
  If scalability is important for your project, please acknowledge ELSI by citing:

    V. W-z. Yu, F. Corsetti, A. Garcia, W. P. Huhn, M. Jacquelin, W. Jia,
    B. Lange, L. Lin, J. Lu, W. Mi, A. Seifitokaldani, A. Vazquez-Mayagoitia,
    C. Yang, H. Yang, and V. Blum
    'ELSI: A unified software interface for Kohn-Sham electronic structure solvers'
    Computer Physics Communications 222, 267-285 (2018).
    http://doi.org/10.1016/j.cpc.2017.09.007


  For the real-space grid partitioning and parallelization used in this calculation, please cite:

    Ville Havu, Volker Blum, Paula Havu, and Matthias Scheffler,
    'Efficient O(N) integration for all-electron electronic structure calculation'
    'using numerically tabulated basis functions'
    Journal of Computational Physics 228, 8367-8379 (2009).
    http://doi.org/10.1016/j.jcp.2009.08.008

  Of course, there are many other important community references, e.g., those cited in the
  above references. Our list is limited to references that describe implementations in the
  FHI-aims code. The reason is purely practical (length of this list) - please credit others as well.

------------------------------------------------------------
          Leaving FHI-aims.
          Date     :  20220925, Time     :  114630.796

          Computational steps:
          | Number of self-consistency cycles          :           29
          | Number of SCF (re)initializations          :            1

          Detailed time accounting                     :  max(cpu_time)    wall_clock(cpu1)
          | Total time                                  :      898.133 s         899.875 s
          | Preparation time                            :        1.554 s           1.562 s
          | Boundary condition initalization            :        1.024 s           1.024 s
          | Grid partitioning                           :        2.207 s           2.207 s
          | Preloading free-atom quantities on grid     :        2.811 s           2.812 s
          | Free-atom superposition energy              :        0.099 s           0.099 s
          | Total time for integrations                 :      102.677 s         102.715 s
          | Total time for solution of K.-S. equations  :      352.062 s         352.260 s
          | Total time for density update               :      265.669 s         266.327 s
          | Total time for mixing & preconditioning     :       31.772 s          31.778 s
          | Total time for Hartree multipole update     :        0.470 s           0.470 s
          | Total time for Hartree multipole sum        :       70.549 s          70.573 s
          | Total time for total energy evaluation      :        0.232 s           0.223 s
          | Total time for scaled ZORA corrections      :        0.000 s           0.000 s
          | Total time for vdW correction               :       14.203 s          14.227 s
          | Total time for matrix I/O                   :       10.166 s          10.806 s
          | Total time for perturbative SOC             :       42.386 s          42.408 s
          | Total time for Mulliken analysis            :        7.228 s           7.282 s

          Partial memory accounting:
          | Residual value for overall tracked memory usage across tasks:     0.000000 MB (should be 0.000000 MB)
          | Peak values for overall tracked memory usage:
          |   Minimum:      453.747 MB (on task   9 after allocating temp_cmplx_eienvec)
          |   Maximum:      459.473 MB (on task   0 after allocating temp_cmplx_eienvec)
          |   Average:      457.483 MB
          | Largest tracked array allocation:
          |   Minimum:       96.439 MB (soc_matrix on task   0)
          |   Maximum:       96.439 MB (soc_matrix on task   0)
          |   Average:       96.439 MB
          Note:  These values currently only include a subset of arrays which are explicitly tracked.
          The "true" memory usage will be greater.

          Have a nice day.
------------------------------------------------------------
