------------------------------------------------------------
          Invoking FHI-aims ...

          When using FHI-aims, please cite the following reference:

            Volker Blum, Ralf Gehrke, Felix Hanke, Paula Havu,
            Ville Havu, Xinguo Ren, Karsten Reuter, and Matthias Scheffler,
            'Ab Initio Molecular Simulations with Numeric Atom-Centered Orbitals',
            Computer Physics Communications 180, 2175-2196 (2009)

          In addition, many other developments in FHI-aims are likely important for
          your particular application. A partial list of references is given at the end of
          this file. Thank you for giving credit to the authors of these developments.

          For any questions about FHI-aims, please visit our slack channel at

            https://fhi-aims.slack.com

          and our main development and support site at

            https://aims-git.rz-berlin.mpg.de .

          The latter site, in particular, has a wiki to collect information, as well
          as an issue tracker to log discussions, suggest improvements, and report issues
          or bugs. https://aims-git.rz-berlin.mpg.de is also the main development site
          of the project and all new and updated code versions can be obtained there.
          Please send an email to aims-coordinators@fhi-berlin.mpg.de and we will add
          you to these sites. They are for you and everyone is welcome there.

------------------------------------------------------------



  Date     :  20210722, Time     :  101448.818
  Time zero on CPU 1             :   0.142346000000000E+00  s.
  Internal wall clock time zero  :           396180888.818  s.

  FHI-aims created a unique identifier for this run for later identification
  aims_uuid : 8FF72B95-BBF0-4F91-A379-115667996E51

  Build configuration of the current instance of FHI-aims
  -------------------------------------------------------
  FHI-aims version      : 210413
  Commit number         : e4873593e
  CMake host system     : Linux-4.12.14-122.57-default
  CMake version         : 3.5.2
  Fortran compiler      : /mpcdf/soft/SLE_12/packages/x86_64/intel_parallel_studio/2020.1/compilers_and_libraries_2020.1.217/linux/mpi/intel64/bin/mpiifort (Intel) version 19.1.0.20200306
  Fortran compiler flags: -O3 -ip -fp-model precise
  C compiler            : /mpcdf/soft/SLE_12/packages/x86_64/intel/19.1.1/bin/icc (Intel) version 19.1.0.20200306
  C compiler flags      : -O3 -ip -fp-model precise -std=gnu99
  C++ compiler          : /mpcdf/soft/SLE_12/packages/x86_64/intel/19.1.1/bin/icpc (Intel) version 19.1.0.20200306
  C++ compiler flags    : -O3 -ip -fp-model precise -std=gnu99
  Using MPI
  Using ScaLAPACK
  Using LibXC
  Using i-PI
  Using RLSY
  Linking against: /mpcdf/soft/SLE_12/packages/x86_64/intel_parallel_studio/2020.1/mkl/lib/intel64/libmkl_intel_lp64.so
                   /mpcdf/soft/SLE_12/packages/x86_64/intel_parallel_studio/2020.1/mkl/lib/intel64/libmkl_sequential.so
                   /mpcdf/soft/SLE_12/packages/x86_64/intel_parallel_studio/2020.1/mkl/lib/intel64/libmkl_core.so
                   /mpcdf/soft/SLE_12/packages/x86_64/intel_parallel_studio/2020.1/mkl/lib/intel64/libmkl_blacs_intelmpi_lp64.so
                   /mpcdf/soft/SLE_12/packages/x86_64/intel_parallel_studio/2020.1/mkl/lib/intel64/libmkl_scalapack_lp64.so

  Using       40 parallel tasks.
  Task        0 on host co6022 reporting.
  Task        1 on host co6022 reporting.
  Task        2 on host co6022 reporting.
  Task        3 on host co6022 reporting.
  Task        4 on host co6022 reporting.
  Task        5 on host co6022 reporting.
  Task        6 on host co6022 reporting.
  Task        7 on host co6022 reporting.
  Task        8 on host co6022 reporting.
  Task        9 on host co6022 reporting.
  Task       10 on host co6022 reporting.
  Task       11 on host co6022 reporting.
  Task       12 on host co6022 reporting.
  Task       13 on host co6022 reporting.
  Task       14 on host co6022 reporting.
  Task       15 on host co6022 reporting.
  Task       16 on host co6022 reporting.
  Task       17 on host co6022 reporting.
  Task       18 on host co6022 reporting.
  Task       19 on host co6022 reporting.
  Task       20 on host co6022 reporting.
  Task       21 on host co6022 reporting.
  Task       22 on host co6022 reporting.
  Task       23 on host co6022 reporting.
  Task       24 on host co6022 reporting.
  Task       25 on host co6022 reporting.
  Task       26 on host co6022 reporting.
  Task       27 on host co6022 reporting.
  Task       28 on host co6022 reporting.
  Task       29 on host co6022 reporting.
  Task       30 on host co6022 reporting.
  Task       31 on host co6022 reporting.
  Task       32 on host co6022 reporting.
  Task       33 on host co6022 reporting.
  Task       34 on host co6022 reporting.
  Task       35 on host co6022 reporting.
  Task       36 on host co6022 reporting.
  Task       37 on host co6022 reporting.
  Task       38 on host co6022 reporting.
  Task       39 on host co6022 reporting.

  Performing system and environment tests:
  | Environment variable OMP_NUM_THREADS correctly set to 1.
  | Checking for ScaLAPACK...
  | Testing pdtran()...
  | All pdtran() tests passed.

  Obtaining array dimensions for all initial allocations:
  
  -----------------------------------------------------------------------
  Parsing control.in (first pass over file, find array dimensions only).
  The contents of control.in will be repeated verbatim below
  unless switched off by setting 'verbatim_writeout .false.' .
  in the first line of control.in .
  -----------------------------------------------------------------------
  
  ##### Physical settings  ################
  xc                 pbe
  spin               none
  charge      0.0
  relativistic       atomic_zora scalar
  #elsi_restart read
  # SCF settings
  relax_geometry trm 1E-3
  
  #vdw_correction_hirshfeld
  # k-grid settings  (to be adjusted)
  #empty_states 8
  #use_dipole_correction
  #include_spin_orbit non_self_consistent
  
  many_body_dispersion_nl    beta=0.81
  mixer   pulay
  n_max_pulay        12 # high for metal
  charge_mix_param   0.1 #low for metal
  #many_body_dispersion_nl    beta=0.81 do_rpa=.true. rpa_rescale_eigs=.true. parallel_mode=k_points
  ################################################################################
  #
  #  FHI-aims code project
  # Volker Blum, Fritz Haber Institute Berlin, 2009
  #
  #  Suggested "tight" defaults for S atom (to be pasted into control.in file)
  #
  #  Revised Jan 04, 2011, following tests (SiC) done by Lydia Nemec:
  #     d and g functions of tier 2 now enabled by default.
  #
  ################################################################################
    species        S
  #     global species definitions
      nucleus             16
      mass                32.065
  #
      l_hartree           6
  #
      cut_pot             4.0          2.0  1.0
      basis_dep_cutoff    1e-4
  #
      radial_base         44 7.0
      radial_multiplier   2
      angular_grids       specified
        division   0.4665  110
        division   0.5810  194
        division   0.7139  302
        division   0.8274  434
  #      division   0.9105  590
  #      division   1.0975  770
  #      division   1.2028  974
  #      outer_grid  974
        outer_grid  434
  ################################################################################
  #
  #  Definition of "minimal" basis
  #
  ################################################################################
  #     valence basis states
      valence      3  s   2.
      valence      3  p   4.
  #     ion occupancy
      ion_occ      3  s   1.
      ion_occ      3  p   3.
  ################################################################################
  #
  #  Suggested additional basis functions. For production calculations,
  #  uncomment them one after another (the most important basis functions are
  #  listed first).
  #
  #  Constructed for dimers: 1.6 A, 1.9 A, 2.5 A, 3.25 A, 4.0 A
  #
  ################################################################################
  #  "First tier" - improvements: -652.81 meV to -45.53 meV
       ionic 3 d auto
       hydro 2 p 1.8
       hydro 4 f 7
       ionic 3 s auto
  #  "Second tier" - improvements: -30.20 meV to -1.74 meV
       hydro 4 d 6.2
       hydro 5 g 10.8
  #     hydro 4 p 4.9
  #     hydro 5 f 10
  #     hydro 1 s 0.8
  #  "Third tier" - improvements: -1.04 meV to -0.20 meV
  #     hydro 3 d 3.9
  #     hydro 3 d 2.7
  #     hydro 5 g 12
  #     hydro 4 p 10.4
  #     hydro 5 f 12.4
  #     hydro 2 s 1.9
  #  "Fourth tier" - improvements: -0.35 meV to -0.06 meV
  #     hydro 4 d 10.4
  #     hydro 4 p 7.2
  #     hydro 4 d 10
  #     hydro 5 g 19.2
  #     hydro 4 s 12
  
  ################################################################################
  #
  # For methods that use the localized form of the "resolution of identity" for
  # the two-electron Coulomb operator (RI_method LVL), particularly Hartree-Fock and
  # hybrid density functional calculations, the highest accuracy can be obtained by
  # uncommenting the line beginning with "for_aux"  below, thus adding an extra g radial
  # function to the construction of the product basis set for the expansion.
  # See Ref. New J. Phys. 17, 093020 (2015) for more information, particularly Figs. 1 and 6.
  #
  ################################################################################
  #
  # for_aux hydro 5 g 6.0
  ################################################################################
  #
  #  FHI-aims code project
  # Volker Blum, Fritz Haber Institute Berlin, 2009
  #
  #  Suggested "tight" defaults for Mo atom (to be pasted into control.in file)
  #
  ################################################################################
    species        Mo
  #     global species definitions
      nucleus             42
      mass                95.94
  #
      l_hartree           6
  #
      cut_pot             4.0  2.0  1.0
      basis_dep_cutoff    1e-4
  #
      radial_base         59 7.0
      radial_multiplier   2
      angular_grids specified
        division   0.3117   50
        division   0.6750  110
        division   1.0351  194
        division   1.2073  302
        division   1.6402  434
  #      division   1.9185  590
  #      division   2.0237  770
  #      division   2.0980  974
  #      division   2.7972 1202
  #      outer_grid  974
        outer_grid  434
  ################################################################################
  #
  #  Definition of "minimal" basis
  #
  ################################################################################
  #     valence basis states
      valence      5  s   1.
      valence      4  p   6.
      valence      4  d   5.
  #     ion occupancy
      ion_occ     5  s   0.
      ion_occ     4  p   6.
      ion_occ     4  d   4.
  ################################################################################
  #
  #  Suggested additional basis functions. For production calculations,
  #  uncomment them one after another (the most important basis functions are
  #  listed first).
  #
  #  Constructed for dimers: 1.675 A, 1.9 A, 2.375 A, 3.00 A, 4.00 A
  #
  ################################################################################
  #  "First tier"  - max. impr. -711.23  meV, min. impr. -21.07 meV
       hydro 4 f 8.4
       hydro 3 d 2.8
       ionic 5 p auto
       hydro 5 g 12
       ionic 5 s auto
  #  "Second tier" - max. impr. -39.38  meV, min. impr. -2.68 meV
  #     hydro 4 f 12.4
  #     hydro 3 d 3.3
  #     hydro 6 h 17.2
  #     hydro 4 f 7.6
  #     hydro 3 p 3.0
  #     hydro 1 s 0.65
  #  "Third tier"  - max. impr. -5.50 meV, min. impr. -0.47 meV
  #     hydro 4 f 29.2
  #     hydro 5 g 11.2
  #     hydro 3 d 6.8
  #     hydro 6 h 14.8
  #     hydro 2 p 2.3
  #     hydro 4 s 3.8
  #  "Fourth tier"  - max. impr. -0.58 meV, min. impr. -0.19 meV
  #     hydro 5 f 6.8
  #     hydro 5 d 14.8
  #     hydro 6 s 7.8
  #     hydro 5 g 20.8
  #     hydro 5 d 10.4
  #     hydro 5 p 9.8
  #  Further functions - -0.17 meV and below
  #     hydro 5 d 3.2
  ################################################################################
  #
  #  FHI-aims code project
  # Volker Blum, Fritz Haber Institute Berlin, 2009
  #
  #  Suggested "tight" defaults for Se atom (to be pasted into control.in file)
  #
  ################################################################################
    species        Se
  #     global species definitions
      nucleus             34
      mass                78.96
  #
      l_hartree           6
  #
      cut_pot             4.0          2.0  1.0
      basis_dep_cutoff    1e-4
  #
      radial_base         55 7.0
      radial_multiplier   2
      angular_grids       specified
        division   0.0830  110
        division   0.1357  194
        division   0.7377  302
        division   0.8610  434
  #      division   0.9640  590
  #      division   1.0773  770
  #      division   2.5539  974
  #      outer_grid  974
        outer_grid  434
  ################################################################################
  #
  #  Definition of "minimal" basis
  #
  ################################################################################
  #     valence basis states
      valence      4  s   2.
      valence      4  p   4.
      valence      3  d  10.
  #     ion occupancy
      ion_occ      4  s   1.
      ion_occ      4  p   3.
      ion_occ      3  d  10.
  ################################################################################
  #
  #  Suggested additional basis functions. For production calculations,
  #  uncomment them one after another (the most important basis functions are
  #  listed first).
  #
  #  Constructed for dimers: 1.85 A, 2.15 A, 2.50 A, 3.00 A, 4.00 A
  #
  ################################################################################
  #  "First tier" - improvements: -336.21 meV to -36.85 meV
       hydro 3 d 4.3
       hydro 2 p 1.6
       hydro 4 f 7.2
       ionic 4 s auto
  #  "Second tier" - improvements: -14.39 meV to -1.49 meV
  #     hydro 5 g 10.4
  #     hydro 4 p 4.5
  #     hydro 4 d 6.2
  #     hydro 4 f 11.2
  #     hydro 1 s 0.65
  #     hydro 6 h 15.2
  #  "Third tier" - improvements: -0.46 meV and below
  #     hydro 5 g 14.4
  #     ionic 4 d auto
  #     hydro 4 f 22.4
  #     hydro 5 f 7.4
  #     hydro 5 p 8
  #     hydro 5 s 9.4
  #  "Fourth tier" - improvements: -0.12 meV and below
  #     hydro 5 d 11.6
  #     hydro 6 h 18
  #     hydro 4 p 4
  #     hydro 5 f 16
  #     hydro 4 s 3.9
  
  
  
  -----------------------------------------------------------------------
  Completed first pass over input file control.in .
  -----------------------------------------------------------------------
  
  
  -----------------------------------------------------------------------
  Parsing geometry.in (first pass over file, find array dimensions only).
  The contents of geometry.in will be repeated verbatim below
  unless switched off by setting 'verbatim_writeout .false.' .
  in the first line of geometry.in .
  -----------------------------------------------------------------------
  
  #
  # This is the geometry file that corresponds to the current relaxation step.
  # If you do not want this file to be written, set the "write_restart_geometry" flag to .false.
  #  aims_uuid : 5E4B08B8-08F3-48CE-A756-04AB8EB4C542
  #
  atom       2.27441722      5.75999284      7.68131514 Se
  atom       2.42736346      7.58687178      6.72038639 Se
  atom       0.99871840      8.87881532      7.47816040 Se
  atom      -0.65263401      8.87881752      6.23033851 Se
  atom      -1.92834483      5.76000090      6.02718564 Se
  atom      -0.80558188      4.46811145      7.19102171 Se
  atom       1.15164707      4.46810846      6.51747913 Se
  atom      -2.08128542      7.58688173      6.98811308 Se
  #
  # What follows is the current estimated Hessian matrix constructed by the BFGSe algorithm.
  # This is NOT the true Hessian matrix of the system.
  # If you do not want this information here, switch it off using the "hessian_to_restart_geometry" keyword.
  #
  
  -----------------------------------------------------------------------
  Completed first pass over input file geometry.in .
  -----------------------------------------------------------------------
  

  Basic array size parameters:
  | Number of species                 :        3
  | Number of atoms                   :        8
  | Max. basis fn. angular momentum   :        4
  | Max. atomic/ionic basis occupied n:        5
  | Max. number of basis fn. types    :        3
  | Max. radial fns per species/type  :       10
  | Max. logarithmic grid size        :     1436
  | Max. radial integration grid size :      119
  | Max. angular integration grid size:      434
  | Max. angular grid division number :        8
  | Radial grid for Hartree potential :     1436
  | Number of spin channels           :        1

------------------------------------------------------------
          Reading file control.in.
------------------------------------------------------------
  XC: Using PBE gradient-corrected functionals.
  Spin treatment: No spin polarisation.
  Charge =   0.000000E+00: Neutral system requested explicitly.
  Scalar relativistic treatment of kinetic energy: on-site free-atom approximation to ZORA.
  Geometry relaxation: Modified BFGS - TRM (trust radius method) for lattice optimization.
  Convergence accuracy for geometry relaxation: Maximum force <   0.100000E-02 eV/A.
  Using libMBD for calculating MBD and TS energies
  Using pulay charge density mixing.
  Pulay mixing - number of memorized iterations:   12
  Charge density mixing - mixing parameter:     0.1000
 
  Reading configuration options for species S                   .
  | Found nuclear charge :  16.0000
  | Found atomic mass :    32.0650000000000      amu
  | Found l_max for Hartree potential  :   6
  | Found cutoff potl. onset [A], width [A], scale factor :    4.00000    2.00000    1.00000
  | Threshold for basis-dependent cutoff potential is   0.100000E-03
  | Found data for basic radial integration grid :    44 points, outermost radius =    7.000 A
  | Found multiplier for basic radial grid :   2
  | Found angular grid specification: user-specified.
  | Specified grid contains     5 separate shells.
  | Check grid settings after all constraints further below.
  | Found free-atom valence shell :  3 s   2.000
  | Found free-atom valence shell :  3 p   4.000
  | Found free-ion valence shell :  3 s   1.000
  | Found free-ion valence shell :  3 p   3.000
  | Found ionic basis function :  3 d , default cutoff radius.
  | Found hydrogenic basis function :  2 p   1.800
  | Found hydrogenic basis function :  4 f   7.000
  | Found ionic basis function :  3 s , default cutoff radius.
  | Found hydrogenic basis function :  4 d   6.200
  | Found hydrogenic basis function :  5 g  10.800
  Species S                   : Missing cutoff potential type.
  Defaulting to exp(1/x)/(1-x)^2 type cutoff potential.
  Species S : No 'logarithmic' tag. Using default grid for free atom:
  | Default logarithmic grid data [bohr] : 0.1000E-03 0.1000E+03 0.1012E+01
  | Will include ionic basis functions of  2.0-fold positive S                    ion.
  Species S : On-site basis accuracy parameter (for Gram-Schmidt orthonormalisation) not specified.
  Using default value basis_acc =  0.1000000E-03.
  Species S                   : Using default innermost maximum threshold i_radial=  2 for radial functions.
  Species S                   : Default cutoff onset for free atom density etc. : 0.40000000E+01 AA.
  Species S                   : Basic radial grid will be enhanced according to radial_multiplier =   2, to contain    89 grid points.
 
  Reading configuration options for species Mo                  .
  | Found nuclear charge :  42.0000
  | Found atomic mass :    95.9400000000000      amu
  | Found l_max for Hartree potential  :   6
  | Found cutoff potl. onset [A], width [A], scale factor :    4.00000    2.00000    1.00000
  | Threshold for basis-dependent cutoff potential is   0.100000E-03
  | Found data for basic radial integration grid :    59 points, outermost radius =    7.000 A
  | Found multiplier for basic radial grid :   2
  | Found angular grid specification: user-specified.
  | Specified grid contains     6 separate shells.
  | Check grid settings after all constraints further below.
  | Found free-atom valence shell :  5 s   1.000
  | Found free-atom valence shell :  4 p   6.000
  | Found free-atom valence shell :  4 d   5.000
  | Found free-ion valence shell :  5 s   0.000
  | Found free-ion valence shell :  4 p   6.000
  | Found free-ion valence shell :  4 d   4.000
  | Found hydrogenic basis function :  4 f   8.400
  | Found hydrogenic basis function :  3 d   2.800
  | Found ionic basis function :  5 p , default cutoff radius.
  | Found hydrogenic basis function :  5 g  12.000
  | Found ionic basis function :  5 s , default cutoff radius.
  Species Mo                  : Missing cutoff potential type.
  Defaulting to exp(1/x)/(1-x)^2 type cutoff potential.
  Species Mo: No 'logarithmic' tag. Using default grid for free atom:
  | Default logarithmic grid data [bohr] : 0.1000E-03 0.1000E+03 0.1012E+01
  | Will include ionic basis functions of  2.0-fold positive Mo                   ion.
  Species Mo: On-site basis accuracy parameter (for Gram-Schmidt orthonormalisation) not specified.
  Using default value basis_acc =  0.1000000E-03.
  Species Mo                  : Using default innermost maximum threshold i_radial=  2 for radial functions.
  Species Mo                  : Default cutoff onset for free atom density etc. : 0.40000000E+01 AA.
  Species Mo                  : Basic radial grid will be enhanced according to radial_multiplier =   2, to contain   119 grid points.
 
  Reading configuration options for species Se                  .
  | Found nuclear charge :  34.0000
  | Found atomic mass :    78.9600000000000      amu
  | Found l_max for Hartree potential  :   6
  | Found cutoff potl. onset [A], width [A], scale factor :    4.00000    2.00000    1.00000
  | Threshold for basis-dependent cutoff potential is   0.100000E-03
  | Found data for basic radial integration grid :    55 points, outermost radius =    7.000 A
  | Found multiplier for basic radial grid :   2
  | Found angular grid specification: user-specified.
  | Specified grid contains     5 separate shells.
  | Check grid settings after all constraints further below.
  | Found free-atom valence shell :  4 s   2.000
  | Found free-atom valence shell :  4 p   4.000
  | Found free-atom valence shell :  3 d  10.000
  | Found free-ion valence shell :  4 s   1.000
  | Found free-ion valence shell :  4 p   3.000
  | Found free-ion valence shell :  3 d  10.000
  | Found hydrogenic basis function :  3 d   4.300
  | Found hydrogenic basis function :  2 p   1.600
  | Found hydrogenic basis function :  4 f   7.200
  | Found ionic basis function :  4 s , default cutoff radius.
  Species Se                  : Missing cutoff potential type.
  Defaulting to exp(1/x)/(1-x)^2 type cutoff potential.
  Species Se: No 'logarithmic' tag. Using default grid for free atom:
  | Default logarithmic grid data [bohr] : 0.1000E-03 0.1000E+03 0.1012E+01
  | Will include ionic basis functions of  2.0-fold positive Se                   ion.
  Species Se: On-site basis accuracy parameter (for Gram-Schmidt orthonormalisation) not specified.
  Using default value basis_acc =  0.1000000E-03.
  Species Se                  : Using default innermost maximum threshold i_radial=  2 for radial functions.
  Species Se                  : Default cutoff onset for free atom density etc. : 0.40000000E+01 AA.
  Species Se                  : Basic radial grid will be enhanced according to radial_multiplier =   2, to contain   111 grid points.
 
  Finished reading input file 'control.in'.
 
------------------------------------------------------------


------------------------------------------------------------
          Reading geometry description geometry.in.
------------------------------------------------------------
  | The smallest distance between any two atoms is         2.06978846 AA.
  | The first atom of this pair is atom number                      3 .
  | The second atom of this pair is atom number                     4 .
  Input structure read successfully.
  The structure contains        8 atoms,  and a total of        272.000 electrons.

  Input geometry:
  | No unit cell requested.
  | Atomic structure:
  |       Atom                x [A]            y [A]            z [A]
  |    1: Species Se            2.27441722        5.75999284        7.68131514
  |    2: Species Se            2.42736346        7.58687178        6.72038639
  |    3: Species Se            0.99871840        8.87881532        7.47816040
  |    4: Species Se           -0.65263401        8.87881752        6.23033851
  |    5: Species Se           -1.92834483        5.76000090        6.02718564
  |    6: Species Se           -0.80558188        4.46811145        7.19102171
  |    7: Species Se            1.15164707        4.46810846        6.51747913
  |    8: Species Se           -2.08128542        7.58688173        6.98811308

 
  Finished reading input file 'control.in'.
 

------------------------------------------------------------
          Reading geometry description geometry.in.
------------------------------------------------------------
 
  Consistency checks for stacksize environment parameter are next.
 
  | Maximum stacksize for task 0: unlimited
  | Maximum stacksize for task 1: unlimited
  | Maximum stacksize for task 2: unlimited
  | Maximum stacksize for task 3: unlimited
  | Maximum stacksize for task 4: unlimited
  | Maximum stacksize for task 5: unlimited
  | Maximum stacksize for task 6: unlimited
  | Maximum stacksize for task 7: unlimited
  | Maximum stacksize for task 8: unlimited
  | Maximum stacksize for task 9: unlimited
  | Maximum stacksize for task 10: unlimited
  | Maximum stacksize for task 11: unlimited
  | Maximum stacksize for task 12: unlimited
  | Maximum stacksize for task 13: unlimited
  | Maximum stacksize for task 14: unlimited
  | Maximum stacksize for task 15: unlimited
  | Maximum stacksize for task 16: unlimited
  | Maximum stacksize for task 17: unlimited
  | Maximum stacksize for task 18: unlimited
  | Maximum stacksize for task 19: unlimited
  | Maximum stacksize for task 20: unlimited
  | Maximum stacksize for task 21: unlimited
  | Maximum stacksize for task 22: unlimited
  | Maximum stacksize for task 23: unlimited
  | Maximum stacksize for task 24: unlimited
  | Maximum stacksize for task 25: unlimited
  | Maximum stacksize for task 26: unlimited
  | Maximum stacksize for task 27: unlimited
  | Maximum stacksize for task 28: unlimited
  | Maximum stacksize for task 29: unlimited
  | Maximum stacksize for task 30: unlimited
  | Maximum stacksize for task 31: unlimited
  | Maximum stacksize for task 32: unlimited
  | Maximum stacksize for task 33: unlimited
  | Maximum stacksize for task 34: unlimited
  | Maximum stacksize for task 35: unlimited
  | Maximum stacksize for task 36: unlimited
  | Maximum stacksize for task 37: unlimited
  | Maximum stacksize for task 38: unlimited
  | Maximum stacksize for task 39: unlimited
  | Current stacksize for task 0: unlimited
  | Current stacksize for task 1: unlimited
  | Current stacksize for task 2: unlimited
  | Current stacksize for task 3: unlimited
  | Current stacksize for task 4: unlimited
  | Current stacksize for task 5: unlimited
  | Current stacksize for task 6: unlimited
  | Current stacksize for task 7: unlimited
  | Current stacksize for task 8: unlimited
  | Current stacksize for task 9: unlimited
  | Current stacksize for task 10: unlimited
  | Current stacksize for task 11: unlimited
  | Current stacksize for task 12: unlimited
  | Current stacksize for task 13: unlimited
  | Current stacksize for task 14: unlimited
  | Current stacksize for task 15: unlimited
  | Current stacksize for task 16: unlimited
  | Current stacksize for task 17: unlimited
  | Current stacksize for task 18: unlimited
  | Current stacksize for task 19: unlimited
  | Current stacksize for task 20: unlimited
  | Current stacksize for task 21: unlimited
  | Current stacksize for task 22: unlimited
  | Current stacksize for task 23: unlimited
  | Current stacksize for task 24: unlimited
  | Current stacksize for task 25: unlimited
  | Current stacksize for task 26: unlimited
  | Current stacksize for task 27: unlimited
  | Current stacksize for task 28: unlimited
  | Current stacksize for task 29: unlimited
  | Current stacksize for task 30: unlimited
  | Current stacksize for task 31: unlimited
  | Current stacksize for task 32: unlimited
  | Current stacksize for task 33: unlimited
  | Current stacksize for task 34: unlimited
  | Current stacksize for task 35: unlimited
  | Current stacksize for task 36: unlimited
  | Current stacksize for task 37: unlimited
  | Current stacksize for task 38: unlimited
  | Current stacksize for task 39: unlimited
 
  Consistency checks for the contents of control.in are next.
 
  MPI_IN_PLACE appears to work with this MPI implementation.
  | Keeping use_mpi_in_place .true. (see manual).
  Target number of points in a grid batch is not set. Defaulting to  100
  Method for grid partitioning is not set. Defaulting to parallel hash+maxmin partitioning.
  Batch size limit is not set. Defaulting to    200
  By default, will store active basis functions for each batch.
  If in need of memory, prune_basis_once .false. can be used to disable this option.
  communication_type for Hartree potential was not specified.
  Defaulting to calc_hartree .
  Pulay mixer: Number of initial linear mixing iterations not set.
  Defaulting to    0 iterations.
  Work space size for distributed Hartree potential not set.
  Defaulting to   0.200000E+03 MB.
  Algorithm-dependent basis array size parameters:
  | n_max_pulay                         :       12
  Maximum number of self-consistency iterations not provided.
  Presetting  1000 iterations.
  Presetting      1001 iterations before the initial mixing cycle
  is restarted anyway using the sc_init_iter criterion / keyword.
  Presetting a factor      1.000 between actual scf density residual
  and density convergence criterion sc_accuracy_rho below which sc_init_iter
  takes no effect.
 * No s.c.f. convergence criteria (sc_accuracy_*) were provided in control.in.
 * The run will proceed with a reasonable default guess, but please check whether.
 * the s.c.f. cycles seem to take too much or too little time.
  No maximum number of relaxation steps, defaulting to     1000
  Default initial Hessian is Lindh matrix (thres = 15.00) plus  0.200000E+01 eV/A^2 times unity.
  No maximum energy tolerance for TRM/BFGS moves, defaulting to   0.100000E-02
  Maximum energy tolerance by which TRM/BFGS trajectory may increase over multiple steps:   0.300000E-02
  No harmonic length scale. Defaulting to   0.250000E-01 A.
  No trust radius initializer. Defaulting to   0.200000E+00 A.
 * Notice: The s.c.f. convergence criterion sc_accuracy_rho was not provided.
 * We used to stop in this case, and ask the user to provide reasonable
 * scf convergence criteria. However, this led some users to employ criteria
 * that led to extremely long run times, e.g., for simple relaxation.
 * We now preset a default value for sc_accuracy_rho if it is not set.
 * You may still wish to check if this setting is too tight or too loose for your needs.
 * Based on n_atoms, FHI-aims chose sc_accuracy_rho =  0.115470E-05 .
  Force calculation: scf convergence accuracy of forces not set.
  Defaulting to 'sc_accuracy_forces not_checked'.
  Handling of forces: Unphysical translation and rotation will be removed from forces.
  No accuracy limit for integral partition fn. given. Defaulting to  0.1000E-14.
  No threshold value for u(r) in integrations given. Defaulting to  0.1000E-05.
  No occupation type (smearing scheme) given. Defaulting to Gaussian broadening, width =  0.1000E-01 eV.
  The width will be adjusted in iteration number     2 of the first full s.c.f. cycle only.
  S.C.F. convergence parameters will be adjusted in iteration number     2 of the first full s.c.f. cycle only.
  No accuracy for occupation numbers given. Defaulting to  0.1000E-12.
  No threshold value for occupation numbers given. Defaulting to  0.0000E+00.
  No accuracy for fermi level given. Defaulting to  0.1000E-19.
  Maximum # of iterations to find E_F not set. Defaulting to  200.
  Preferred method for the eigenvalue solver ('KS_method') not specified in 'control.in'.
  Calling BLACS routine to test compilation state
  Since ScaLAPACK support is enabled, defaulting to ELPA (via ELSI).
  Will not use alltoall communication since running on < 1024 CPUs.
  Threshold for basis singularities not set.
  Default threshold for basis singularities:  0.1000E-04
  partition_type (choice of integration weights) for integrals was not specified.
  | Using a version of the partition function of Stratmann and coworkers ('stratmann_sparse').
  | At each grid point, the set of atoms used to build the partition table is smoothly restricted to
  | only those atoms whose free-atom density would be non-zero at that grid point.
  Partitioning for Hartree potential was not defined. Using partition_type for integrals.
  | Adjusted default value of keyword multip_moments_threshold to:       0.10000000E-11
  | This value may affect high angular momentum components of the Hartree potential in periodic systems.
  No q(lm)/r^(l+1) cutoff set for long-range Hartree potential.
  | Using default value of  0.100000E-09 .
  | Verify using the multipole_threshold keyword.
  Defaulting to new monopole extrapolation.
  Density update method: automatic selection selected.
  Geometry relaxation: A file "geometry.in.next_step" is written out by default after each step.
  | This file contains the geometry of the current relaxation step as well as
  | the current Hessian matrix needed to restart the relaxation algorithm.
  | If you do not want part or all of this information, use the keywords
  | "write_restart_geometry" or "hessian_to_restart_geometry" to switch the output off.
  Charge integration errors on the 3D integration grid will be compensated
  by explicit normalization and distribution of residual charges.
  Use the "compensate_multipole_errors" flag to change this behaviour.
  Set 'collect_eigenvectors' to be '.true.' for use_density_matrix .false.
 
  Consistency checks for the contents of geometry.in are next.
 
  Number of empty states per atom not set in control.in - providing a guess from actual geometry.
  | Total number of empty states used during s.c.f. cycle:       44
  If you use a very high smearing, use empty_states (per atom!) in control.in to increase this value.

  Structure-dependent array size parameters: 
  | Maximum number of distinct radial functions  :       38
  | Maximum number of basis functions            :      272
  | Number of Kohn-Sham states (occupied + empty):      180
------------------------------------------------------------

------------------------------------------------------------
          Preparing all fixed parts of the calculation.
------------------------------------------------------------
  Determining machine precision:
    2.225073858507201E-308
  Setting up grids for atomic and cluster calculations.

  Creating wave function, potential, and density for free atoms.

  Species: S

  List of occupied orbitals and eigenvalues:
    n    l              occ      energy [Ha]    energy [eV]
    1    0           2.0000       -88.680731     -2413.1255
    2    0           2.0000        -7.781719      -211.7513
    3    0           2.0000        -0.633662       -17.2428
    2    1           6.0000        -5.751976      -156.5192
    3    1           4.0000        -0.257086        -6.9957


  Species: Mo

  List of occupied orbitals and eigenvalues:
    n    l              occ      energy [Ha]    energy [eV]
    1    0           2.0000      -745.344654    -20281.8600
    2    0           2.0000      -103.288246     -2810.6162
    3    0           2.0000       -17.516687      -476.6533
    4    0           2.0000        -2.358559       -64.1796
    5    0           1.0000        -0.145159        -3.9500
    2    1           6.0000       -92.308627     -2511.8455
    3    1           6.0000       -13.936005      -379.2180
    4    1           6.0000        -1.408138       -38.3174
    3    2          10.0000        -8.119011      -220.9295
    4    2           5.0000        -0.132984        -3.6187


  Species: Se

  List of occupied orbitals and eigenvalues:
    n    l              occ      energy [Ha]    energy [eV]
    1    0           2.0000      -466.337810    -12689.6975
    2    0           2.0000       -59.202598     -1610.9847
    3    0           2.0000        -7.847116      -213.5309
    4    0           2.0000        -0.634372       -17.2621
    2    1           6.0000       -52.061107     -1416.6548
    3    1           6.0000        -5.620941      -152.9536
    4    1           4.0000        -0.238469        -6.4891
    3    2          10.0000        -1.951949       -53.1152


  Adding cutoff potential to free-atom effective potential.
  Creating fixed part of basis set: Ionic, confined, hydrogenic.
 
  S                    ion:

  List of free ionic orbitals and eigenvalues:
    n    l      energy [Ha]    energy [eV]
    1    0       -89.703778     -2440.9640
    2    0        -8.775428      -238.7916
    3    0        -1.470343       -40.0101
    2    1        -6.747660      -183.6132
    3    1        -1.048627       -28.5346


  List of ionic basis orbitals and eigenvalues:
    n    l      energy [Ha]    energy [eV]    outer radius [A]
    3    2        -0.495605       -13.4861       5.386362
    3    0        -1.470336       -40.0099       3.967934

 
  S                    hydrogenic:
 
  List of hydrogenic basis orbitals: 
    n    l      effective z      eigenvalue [eV]  inner max. [A]     outer max. [A]     outer radius [A]   
    2    1         1.800000       -11.0118           1.168531           1.168531           5.452614
    4    3         7.000000       -41.6672           1.212182           1.212182           5.066981
    4    2         6.200000       -32.6848           0.582121           1.814567           5.386362
    5    4        10.800000       -63.4785           1.227092           1.227092           4.766538
 
 
  Mo                   ion:

  List of free ionic orbitals and eigenvalues:
    n    l      energy [Ha]    energy [eV]
    1    0      -746.048685    -20301.0176
    2    0      -103.980912     -2829.4646
    3    0       -18.206601      -495.4268
    4    0        -3.040545       -82.7374
    2    1       -93.001013     -2530.6863
    3    1       -14.625827      -397.9890
    4    1        -2.084855       -56.7318
    3    2        -8.808854      -239.7011
    4    2        -0.765435       -20.8285


  List of ionic basis orbitals and eigenvalues:
    n    l      energy [Ha]    energy [eV]    outer radius [A]
    5    1        -0.465587       -12.6693       5.456393
    5    0        -0.650331       -17.6964       5.390095

 
  Mo                   hydrogenic:
 
  List of hydrogenic basis orbitals: 
    n    l      effective z      eigenvalue [eV]  inner max. [A]     outer max. [A]     outer radius [A]   
    4    3         8.400000       -60.0010           1.009788           1.009788           4.487018
    3    2         2.800000       -11.8048           1.687401           1.687401           5.456393
    5    4        12.000000       -78.3687           1.100005           1.100005           4.432498
 
 
  Se                   ion:

  List of free ionic orbitals and eigenvalues:
    n    l      energy [Ha]    energy [eV]
    1    0      -467.261007    -12714.8189
    2    0       -60.104893     -1635.5374
    3    0        -8.743714      -237.9286
    4    0        -1.414053       -38.4783
    2    1       -52.964156     -1441.2280
    3    1        -6.516916      -177.3343
    4    1        -0.961869       -26.1738
    3    2        -2.844511       -77.4031


  List of ionic basis orbitals and eigenvalues:
    n    l      energy [Ha]    energy [eV]    outer radius [A]
    4    0        -1.414046       -38.4782       4.083166

 
  Se                   hydrogenic:
 
  List of hydrogenic basis orbitals: 
    n    l      effective z      eigenvalue [eV]  inner max. [A]     outer max. [A]     outer radius [A]   
    3    2         4.300000       -27.9518           1.103845           1.103845           5.278265
    2    1         1.600000        -8.6828           1.326010           1.326010           5.475439
    4    3         7.200000       -44.0822           1.173422           1.173422           4.965294
 
  Creating atomic-like basis functions for current effective potential.

  Species S                   :

  List of atomic basis orbitals and eigenvalues:
    n    l      energy [Ha]    energy [eV]    outer radius [A]
    1    0       -88.680731     -2413.1255       0.682391
    2    0        -7.781719      -211.7513       2.289014
    3    0        -0.633662       -17.2428       5.256262
    2    1        -5.751976      -156.5192       2.555240
    3    1        -0.257086        -6.9957       5.386362


  Species Mo                  :

  List of atomic basis orbitals and eigenvalues:
    n    l      energy [Ha]    energy [eV]    outer radius [A]
    1    0      -745.344654    -20281.8600       0.247552
    2    0      -103.288246     -2810.6162       0.682864
    3    0       -17.516687      -476.6533       1.626637
    4    0        -2.358559       -64.1796       4.220963
    5    0        -0.145159        -3.9500       5.456393
    2    1       -92.308627     -2511.8455       0.699766
    3    1       -13.936005      -379.2180       1.793761
    4    1        -1.408138       -38.3174       4.828511
    3    2        -8.119011      -220.9295       2.181285
    4    2        -0.132984        -3.6187       5.390095


  Species Se                  :

  List of atomic basis orbitals and eigenvalues:
    n    l      energy [Ha]    energy [eV]    outer radius [A]
    1    0      -466.337810    -12689.6975       0.309561
    2    0       -59.202598     -1610.9847       0.885812
    3    0        -7.847116      -213.5309       2.355489
    4    0        -0.634372       -17.2621       5.214131
    2    1       -52.061107     -1416.6548       0.907737
    3    1        -5.620941      -152.9536       2.694529
    4    1        -0.238469        -6.4891       5.408909
    3    2        -1.951949       -53.1152       4.083166

  Assembling full basis from fixed parts.
  | Species S :   atomic orbital   1 s accepted.
  | Species S :   atomic orbital   2 s accepted.
  | Species S :    ionic orbital   3 s accepted.
  | Species S :   atomic orbital   3 s accepted.
  | Species S :   atomic orbital   2 p accepted.
  | Species S :   atomic orbital   3 p accepted.
  | Species S :    hydro orbital   2 p accepted.
  | Species S :    ionic orbital   3 d accepted.
  | Species S :    hydro orbital   4 d accepted.
  | Species S :    hydro orbital   4 f accepted.
  | Species S :    hydro orbital   5 g accepted.
  | Species Mo :   atomic orbital   1 s accepted.
  | Species Mo :   atomic orbital   2 s accepted.
  | Species Mo :   atomic orbital   3 s accepted.
  | Species Mo :   atomic orbital   4 s accepted.
  | Species Mo :    ionic orbital   5 s accepted.
  | Species Mo :   atomic orbital   5 s accepted.
  | Species Mo :   atomic orbital   2 p accepted.
  | Species Mo :   atomic orbital   3 p accepted.
  | Species Mo :   atomic orbital   4 p accepted.
  | Species Mo :    ionic orbital   5 p accepted.
  | Species Mo :   atomic orbital   3 d accepted.
  | Species Mo :   atomic orbital   4 d accepted.
  | Species Mo :    hydro orbital   3 d accepted.
  | Species Mo :    hydro orbital   4 f accepted.
  | Species Mo :    hydro orbital   5 g accepted.
  | Species Se :   atomic orbital   1 s accepted.
  | Species Se :   atomic orbital   2 s accepted.
  | Species Se :   atomic orbital   3 s accepted.
  | Species Se :    ionic orbital   4 s accepted.
  | Species Se :   atomic orbital   4 s accepted.
  | Species Se :   atomic orbital   2 p accepted.
  | Species Se :   atomic orbital   3 p accepted.
  | Species Se :   atomic orbital   4 p accepted.
  | Species Se :    hydro orbital   2 p accepted.
  | Species Se :   atomic orbital   3 d accepted.
  | Species Se :    hydro orbital   3 d accepted.
  | Species Se :    hydro orbital   4 f accepted.
 
  Basis size parameters after reduction:
  | Total number of radial functions:       38
  | Total number of basis functions :      272
 
  Per-task memory consumption for arrays in subroutine allocate_ext:
  |          13.978524MB.
  Testing on-site integration grid accuracy.
  |  Species  Function  <phi|h_atom|phi> (log., in eV)  <phi|h_atom|phi> (rad., in eV)
           1        1              -2413.1254568977              -2413.1254096663
           1        2               -211.7513411281               -211.7513404762
           1        3                -16.9725280787                -16.9725279206
           1        4                  7.6024436204                  7.6024549059
           1        5               -156.5192206929               -156.5192205451
           1        6                 -6.9959757887                 -6.9959777655
           1        7                  6.8896462808                  6.8895564741
           1        8                  6.0214250550                  6.0214220200
           1        9                 19.6206468977                 19.6206494558
           1       10                 24.7008710786                 24.7008710738
           1       11                 47.5292252001                 47.5292260486
           2       12             -20281.8599610543             -20281.8584300616
           2       13              -2810.6161812280              -2810.6161551921
           2       14               -476.6533163555               -476.6533136395
           2       15                -64.1796433667                -64.1796426456
           2       16                 -3.3691762756                 -3.3691802887
           2       17                  4.4704608512                  4.4699102345
           2       18              -2511.8455406047              -2511.8455385741
           2       19               -379.2179896350               -379.2179882338
           2       20                -38.3173891619                -38.3173886619
           2       21                  0.2493245095                  0.2492931069
           2       22               -220.9295301098               -220.9295297081
           2       23                 -3.6195697699                 -3.6195754704
           2       24                  7.1428000922                  7.1426882355
           2       25                 23.3975871087                 23.3975871819
           2       26                 50.2449608881                 50.2449608586
           3       27             -12689.6974611609             -12689.6967666984
           3       28              -1610.9846578580              -1610.9846472470
           3       29               -213.5308789869               -213.5308777267
           3       30                -17.0464428502                -17.0464426496
           3       31                  6.7356859379                  6.7356842047
           3       32              -1416.6548010133              -1416.6548002108
           3       33               -152.9535734377               -152.9535727493
           3       34                 -6.4896265677                 -6.4896303794
           3       35                  5.2703037283                  5.2701679583
           3       36                -53.1152220964                -53.1152219035
           3       37                  7.6186674138                  7.6186665630
           3       38                 23.1072799052                 23.1072803137

  Preparing densities etc. for the partition functions (integrals / Hartree potential).
 Frequency grid relative error: 0.12418110983958286E-009                        
   
 Will use parallel mode: atoms     
 BLACS block size: 3                                                 

  Preparations completed.
  max(cpu_time)          :      0.659 s.
  Wall clock time (cpu1) :      1.028 s.
------------------------------------------------------------

------------------------------------------------------------
          Begin self-consistency loop: Initialization.

          Date     :  20210722, Time     :  101450.679
------------------------------------------------------------

  Initializing index lists of integration centers etc. from given atomic structure:
  | Number of centers in hartree potential         :         8
  | Number of centers in hartree multipole         :         8
  | Number of centers in electron density summation:         8
  | Number of centers in basis integrals           :         8
  | Number of centers in integrals                 :         8
  | Number of centers in hamiltonian               :         8

  Initializing relaxation algorithms.
  Finished initialization of distributed Hessian storage.
  | Global dimension:        24
  | BLACS block size:         1
  | Number of workers:       24

  * Using 40 tasks for Scalapack Eigenvalue solver.
  Detailed listing of tasks and assigned k-points:
  (for non-periodic systems, the "k-point" denotes an internal label only)
   Task     0 k-point     1 on co6022
   Task     1 k-point     1 on co6022
   Task     2 k-point     1 on co6022
   Task     3 k-point     1 on co6022
   Task     4 k-point     1 on co6022
   Task     5 k-point     1 on co6022
   Task     6 k-point     1 on co6022
   Task     7 k-point     1 on co6022
   Task     8 k-point     1 on co6022
   Task     9 k-point     1 on co6022
   Task    10 k-point     1 on co6022
   Task    11 k-point     1 on co6022
   Task    12 k-point     1 on co6022
   Task    13 k-point     1 on co6022
   Task    14 k-point     1 on co6022
   Task    15 k-point     1 on co6022
   Task    16 k-point     1 on co6022
   Task    17 k-point     1 on co6022
   Task    18 k-point     1 on co6022
   Task    19 k-point     1 on co6022
   Task    20 k-point     1 on co6022
   Task    21 k-point     1 on co6022
   Task    22 k-point     1 on co6022
   Task    23 k-point     1 on co6022
   Task    24 k-point     1 on co6022
   Task    25 k-point     1 on co6022
   Task    26 k-point     1 on co6022
   Task    27 k-point     1 on co6022
   Task    28 k-point     1 on co6022
   Task    29 k-point     1 on co6022
   Task    30 k-point     1 on co6022
   Task    31 k-point     1 on co6022
   Task    32 k-point     1 on co6022
   Task    33 k-point     1 on co6022
   Task    34 k-point     1 on co6022
   Task    35 k-point     1 on co6022
   Task    36 k-point     1 on co6022
   Task    37 k-point     1 on co6022
   Task    38 k-point     1 on co6022
   Task    39 k-point     1 on co6022
  Tasks:    40 split into      8 X      5 BLACS grid
  Calculating block size based on n_basis =          272  max_nprow =            8  max_npcol =            5
  ScaLAPACK block size set to:           16
  Allocating        0.023 MB for ovlp
  Allocating        0.023 MB for ham
  Allocating        0.023 MB for eigenvec
  Required Scalapack workspace - INTEGER:            1  REAL:             1
  Partitioning the integration grid into batches with parallel hashing+maxmin method.
  | Number of batches:     3718
  | Maximal batch size:     174
  | Minimal batch size:      22
  | Average batch size:      75.847
  | Standard deviation of batch sizes:      27.908

  Integration load balanced across    40 MPI tasks.
  Work distribution over tasks is as follows:
  Task     0 has       7092 integration points.
  Task     1 has       6990 integration points.
  Task     2 has       7103 integration points.
  Task     3 has       6980 integration points.
  Task     4 has       7036 integration points.
  Task     5 has       7084 integration points.
  Task     6 has       6994 integration points.
  Task     7 has       6999 integration points.
  Task     8 has       7090 integration points.
  Task     9 has       6972 integration points.
  Task    10 has       7002 integration points.
  Task    11 has       7001 integration points.
  Task    12 has       7030 integration points.
  Task    13 has       7033 integration points.
  Task    14 has       7005 integration points.
  Task    15 has       7114 integration points.
  Task    16 has       7087 integration points.
  Task    17 has       7017 integration points.
  Task    18 has       7010 integration points.
  Task    19 has       6963 integration points.
  Task    20 has       7092 integration points.
  Task    21 has       7076 integration points.
  Task    22 has       6995 integration points.
  Task    23 has       7111 integration points.
  Task    24 has       7033 integration points.
  Task    25 has       7118 integration points.
  Task    26 has       7114 integration points.
  Task    27 has       7004 integration points.
  Task    28 has       7098 integration points.
  Task    29 has       7090 integration points.
  Task    30 has       7096 integration points.
  Task    31 has       7007 integration points.
  Task    32 has       7013 integration points.
  Task    33 has       7098 integration points.
  Task    34 has       7092 integration points.
  Task    35 has       7091 integration points.
  Task    36 has       7095 integration points.
  Task    37 has       7009 integration points.
  Task    38 has       7086 integration points.
  Task    39 has       7080 integration points.
  Initializing partition tables, free-atom densities, potentials, etc. across the integration grid (initialize_grid_storage).
  | initialize_grid_storage: Actual outermost partition radius vs. multipole_radius_free
  | (-- VB: in principle, multipole_radius_free should be larger, hence this output)
  | Species        1: Confinement radius =              6.000000000000000 AA, multipole_radius_free =              6.012827091137924 AA.
  | Species        1: outer_partition_radius set to              6.012827091137924 AA .
  | Species        2: Confinement radius =              6.000000000000000 AA, multipole_radius_free =              6.016994434057369 AA.
  | Species        2: outer_partition_radius set to              6.016994434057369 AA .
  | Species        3: Confinement radius =              6.000000000000000 AA, multipole_radius_free =              6.037996416842453 AA.
  | Species        3: outer_partition_radius set to              6.037996416842453 AA .
  | The sparse table of interatomic distances needs          0.71 kbyte instead of         0.51 kbyte of memory.
  | Using the partition_type stratmann_smoother will reduce your memory usage.
  | Net number of integration points:   282000
  | of which are non-zero points    :   264842
  Renormalizing the initial density to the exact electron count on the 3D integration grid.
  | Initial density: Formal number of electrons (from input files) :     272.0000000000
  | Integrated number of electrons on 3D grid     :     271.9999669852
  | Charge integration error                      :      -0.0000330148
  | Normalization factor for density and gradient :       1.0000001214
  Renormalizing the free-atom superposition density to the exact electron count on the 3D integration grid.
  | Formal number of electrons (from input files) :     272.0000000000
  | Integrated number of electrons on 3D grid     :     271.9999669852
  | Charge integration error                      :      -0.0000330148
  | Normalization factor for density and gradient :       1.0000001214
  Obtaining max. number of non-zero basis functions in each batch (get_n_compute_maxes).
  | Maximal number of non-zero basis functions:      229 in task     0
  | Maximal number of non-zero basis functions:      226 in task     1
  | Maximal number of non-zero basis functions:      222 in task     2
  | Maximal number of non-zero basis functions:      232 in task     3
  | Maximal number of non-zero basis functions:      232 in task     4
  | Maximal number of non-zero basis functions:      232 in task     5
  | Maximal number of non-zero basis functions:      227 in task     6
  | Maximal number of non-zero basis functions:      231 in task     7
  | Maximal number of non-zero basis functions:      231 in task     8
  | Maximal number of non-zero basis functions:      224 in task     9
  | Maximal number of non-zero basis functions:      232 in task    10
  | Maximal number of non-zero basis functions:      231 in task    11
  | Maximal number of non-zero basis functions:      231 in task    12
  | Maximal number of non-zero basis functions:      224 in task    13
  | Maximal number of non-zero basis functions:      229 in task    14
  | Maximal number of non-zero basis functions:      226 in task    15
  | Maximal number of non-zero basis functions:      231 in task    16
  | Maximal number of non-zero basis functions:      231 in task    17
  | Maximal number of non-zero basis functions:      224 in task    18
  | Maximal number of non-zero basis functions:      226 in task    19
  | Maximal number of non-zero basis functions:      229 in task    20
  | Maximal number of non-zero basis functions:      230 in task    21
  | Maximal number of non-zero basis functions:      224 in task    22
  | Maximal number of non-zero basis functions:      224 in task    23
  | Maximal number of non-zero basis functions:      232 in task    24
  | Maximal number of non-zero basis functions:      231 in task    25
  | Maximal number of non-zero basis functions:      229 in task    26
  | Maximal number of non-zero basis functions:      226 in task    27
  | Maximal number of non-zero basis functions:      226 in task    28
  | Maximal number of non-zero basis functions:      229 in task    29
  | Maximal number of non-zero basis functions:      231 in task    30
  | Maximal number of non-zero basis functions:      232 in task    31
  | Maximal number of non-zero basis functions:      231 in task    32
  | Maximal number of non-zero basis functions:      229 in task    33
  | Maximal number of non-zero basis functions:      232 in task    34
  | Maximal number of non-zero basis functions:      224 in task    35
  | Maximal number of non-zero basis functions:      226 in task    36
  | Maximal number of non-zero basis functions:      226 in task    37
  | Maximal number of non-zero basis functions:      232 in task    38
  | Maximal number of non-zero basis functions:      231 in task    39
  Selecting the method for density update.
  Electron density will be updated via Kohn Sham orbitals; 
  first geometry step: forces will be updated via orbitals;
  second geometry step: forces will be updated via density matrix;
  finally, the fastest method will be selected
  Scalapack and automatic selection of force update requested:
  Switching to packed matrix format "index" by default.
  Hamiltonian matrix size:
  | Size of matrix non-packed:                 37128
  | Size of matrix packed:           36013
  Allocating        0.374 MB for KS_eigenvector
  Integrating Hamiltonian matrix: batch-based integration.
  Time summed over all CPUs for integration: real work        3.520 s, elapsed        3.741 s
  Integrating overlap matrix.
  Time summed over all CPUs for integration: real work        1.570 s, elapsed        1.851 s
  Decreasing sparse matrix size:
  | Tolerance:  0.1000E-12
  Hamiltonian matrix
  | Array has    35720 nonzero elements out of    36013 elements
  | Sparsity factor is 0.008
  Overlap matrix
  | Array has    35291 nonzero elements out of    36013 elements
  | Sparsity factor is 0.020
  New size of hamiltonian matrix:       35721
  Deallocating overlap matrix.

  Updating Kohn-Sham eigenvalues and eigenvectors using ELSI and the ELPA eigensolver.
  Overlap matrix is not singular
  | Lowest and highest eigenvalues :  0.9667E-02,  0.4768E+01
  Finished singularity check of overlap matrix
  | Time :     0.082 s
  Starting ELPA eigensolver
  Finished Cholesky decomposition
  | Time :     0.025 s
  Finished transformation to standard eigenproblem
  | Time :     0.009 s
  Finished solving standard eigenproblem
  | Time :     0.029 s
  Finished back-transformation of eigenvectors
  | Time :     0.002 s

  Obtaining occupation numbers and chemical potential using ELSI.
  | Chemical potential (Fermi level):    -5.28733379 eV
  Writing Kohn-Sham eigenvalues.

  State    Occupation    Eigenvalue [Ha]    Eigenvalue [eV]
      1       2.00000        -466.358283       -12690.25454
      2       2.00000        -466.358283       -12690.25454
      3       2.00000        -466.358282       -12690.25454
      4       2.00000        -466.358282       -12690.25454
      5       2.00000        -466.358281       -12690.25451
      6       2.00000        -466.358281       -12690.25451
      7       2.00000        -466.358280       -12690.25448
      8       2.00000        -466.358280       -12690.25448
      9       2.00000         -59.223694        -1611.55872
     10       2.00000         -59.223694        -1611.55872
     11       2.00000         -59.223694        -1611.55871
     12       2.00000         -59.223694        -1611.55871
     13       2.00000         -59.223693        -1611.55869
     14       2.00000         -59.223693        -1611.55869
     15       2.00000         -59.223692        -1611.55866
     16       2.00000         -59.223692        -1611.55866
     17       2.00000         -52.082320        -1417.23204
     18       2.00000         -52.082320        -1417.23204
     19       2.00000         -52.082320        -1417.23203
     20       2.00000         -52.082320        -1417.23203
     21       2.00000         -52.082319        -1417.23200
     22       2.00000         -52.082319        -1417.23200
     23       2.00000         -52.082318        -1417.23197
     24       2.00000         -52.082318        -1417.23197
     25       2.00000         -52.082133        -1417.22695
     26       2.00000         -52.082133        -1417.22695
     27       2.00000         -52.082133        -1417.22694
     28       2.00000         -52.082133        -1417.22694
     29       2.00000         -52.082132        -1417.22692
     30       2.00000         -52.082132        -1417.22691
     31       2.00000         -52.082131        -1417.22688
     32       2.00000         -52.082131        -1417.22688
     33       2.00000         -52.081948        -1417.22190
     34       2.00000         -52.081948        -1417.22190
     35       2.00000         -52.081947        -1417.22189
     36       2.00000         -52.081947        -1417.22189
     37       2.00000         -52.081946        -1417.22187
     38       2.00000         -52.081946        -1417.22187
     39       2.00000         -52.081945        -1417.22184
     40       2.00000         -52.081945        -1417.22184
     41       2.00000          -7.871781         -214.20206
     42       2.00000          -7.871757         -214.20141
     43       2.00000          -7.871757         -214.20140
     44       2.00000          -7.871699         -214.19981
     45       2.00000          -7.871699         -214.19981
     46       2.00000          -7.871640         -214.19823
     47       2.00000          -7.871640         -214.19822
     48       2.00000          -7.871616         -214.19756
     49       2.00000          -5.648845         -153.71288
     50       2.00000          -5.648719         -153.70946
     51       2.00000          -5.648718         -153.70945
     52       2.00000          -5.648392         -153.70058
     53       2.00000          -5.648392         -153.70058
     54       2.00000          -5.648017         -153.69035
     55       2.00000          -5.648016         -153.69034
     56       2.00000          -5.647835         -153.68541
     57       2.00000          -5.646111         -153.63850
     58       2.00000          -5.646005         -153.63561
     59       2.00000          -5.646005         -153.63560
     60       2.00000          -5.645809         -153.63027
     61       2.00000          -5.645809         -153.63027
     62       2.00000          -5.645663         -153.62629
     63       2.00000          -5.645662         -153.62629
     64       2.00000          -5.645611         -153.62490
     65       2.00000          -5.643448         -153.56603
     66       2.00000          -5.643446         -153.56599
     67       2.00000          -5.643446         -153.56598
     68       2.00000          -5.643442         -153.56587
     69       2.00000          -5.643442         -153.56587
     70       2.00000          -5.643437         -153.56574
     71       2.00000          -5.643437         -153.56573
     72       2.00000          -5.643435         -153.56568
     73       2.00000          -1.988337          -54.10540
     74       2.00000          -1.987597          -54.08526
     75       2.00000          -1.987596          -54.08525
     76       2.00000          -1.985930          -54.03989
     77       2.00000          -1.985929          -54.03989
     78       2.00000          -1.984231          -53.99367
     79       2.00000          -1.984230          -53.99365
     80       2.00000          -1.983334          -53.96927
     81       2.00000          -1.981114          -53.90884
     82       2.00000          -1.981113          -53.90884
     83       2.00000          -1.980629          -53.89566
     84       2.00000          -1.980629          -53.89566
     85       2.00000          -1.980512          -53.89247
     86       2.00000          -1.978656          -53.84197
     87       2.00000          -1.978656          -53.84197
     88       2.00000          -1.978241          -53.83067
     89       2.00000          -1.977790          -53.81841
     90       2.00000          -1.977296          -53.80497
     91       2.00000          -1.977100          -53.79964
     92       2.00000          -1.977100          -53.79963
     93       2.00000          -1.977053          -53.79836
     94       2.00000          -1.977053          -53.79836
     95       2.00000          -1.975981          -53.76917
     96       2.00000          -1.975981          -53.76917
     97       2.00000          -1.975717          -53.76198
     98       2.00000          -1.975717          -53.76198
     99       2.00000          -1.975205          -53.74807
    100       2.00000          -1.975205          -53.74807
    101       2.00000          -1.975118          -53.74569
    102       2.00000          -1.975101          -53.74522
    103       2.00000          -1.975100          -53.74521
    104       2.00000          -1.974788          -53.73671
    105       2.00000          -1.974629          -53.73238
    106       2.00000          -1.974167          -53.71982
    107       2.00000          -1.974167          -53.71982
    108       2.00000          -1.974150          -53.71936
    109       2.00000          -1.974048          -53.71657
    110       2.00000          -1.974047          -53.71656
    111       2.00000          -1.973915          -53.71295
    112       2.00000          -1.973915          -53.71295
    113       2.00000          -0.860065          -23.40356
    114       2.00000          -0.826850          -22.49973
    115       2.00000          -0.826848          -22.49969
    116       2.00000          -0.739219          -20.11517
    117       2.00000          -0.739218          -20.11515
    118       2.00000          -0.619497          -16.85737
    119       2.00000          -0.619494          -16.85728
    120       2.00000          -0.537113          -14.61558
    121       2.00000          -0.449480          -12.23099
    122       2.00000          -0.425624          -11.58182
    123       2.00000          -0.425621          -11.58172
    124       2.00000          -0.400162          -10.88896
    125       2.00000          -0.360333           -9.80516
    126       2.00000          -0.360329           -9.80504
    127       2.00000          -0.360123           -9.79944
    128       2.00000          -0.360123           -9.79944
    129       2.00000          -0.327242           -8.90471
    130       2.00000          -0.260253           -7.08185
    131       2.00000          -0.260244           -7.08161
    132       2.00000          -0.256777           -6.98726
    133       2.00000          -0.256777           -6.98725
    134       2.00000          -0.241667           -6.57611
    135       2.00000          -0.241660           -6.57590
    136       2.00000          -0.236604           -6.43832
    137       0.00000          -0.098320           -2.67542
    138       0.00000          -0.098312           -2.67521
    139       0.00000          -0.088091           -2.39708
    140       0.00000          -0.055923           -1.52175
    141       0.00000          -0.055918           -1.52160
    142       0.00000          -0.042575           -1.15853
    143       0.00000          -0.037173           -1.01153
    144       0.00000          -0.037172           -1.01149
    145       0.00000           0.055142            1.50048
    146       0.00000           0.075201            2.04631
    147       0.00000           0.075204            2.04640
    148       0.00000           0.083723            2.27821
    149       0.00000           0.083725            2.27829
    150       0.00000           0.089416            2.43312
    151       0.00000           0.091582            2.49206
    152       0.00000           0.091584            2.49214
    153       0.00000           0.110691            3.01207
    154       0.00000           0.113415            3.08617
    155       0.00000           0.143750            3.91165
    156       0.00000           0.143752            3.91168
    157       0.00000           0.144901            3.94297
    158       0.00000           0.144917            3.94338
    159       0.00000           0.149904            4.07909
    160       0.00000           0.149905            4.07912
    161       0.00000           0.168346            4.58094
    162       0.00000           0.179517            4.88491
    163       0.00000           0.179530            4.88525
    164       0.00000           0.183058            4.98127
    165       0.00000           0.185364            5.04401
    166       0.00000           0.185377            5.04437
    167       0.00000           0.210008            5.71462
    168       0.00000           0.210012            5.71471
    169       0.00000           0.232705            6.33223
    170       0.00000           0.232711            6.33240
    171       0.00000           0.234009            6.36771
    172       0.00000           0.234022            6.36806
    173       0.00000           0.241465            6.57058
    174       0.00000           0.248960            6.77454
    175       0.00000           0.295671            8.04563
    176       0.00000           0.295673            8.04568
    177       0.00000           0.318657            8.67111
    178       0.00000           0.342882            9.33029
    179       0.00000           0.342882            9.33030
    180       0.00000           0.375437           10.21617

  Highest occupied state (VBM) at     -6.43832063 eV
  | Occupation number:      2.00000000

  Lowest unoccupied state (CBM) at    -2.67542013 eV
  | Occupation number:      0.00000000

  Overall HOMO-LUMO gap:      3.76290050 eV.
  Calculating total energy contributions from superposition of free atom densities.

  Total energy components:
  | Sum of eigenvalues            :      -11486.46022675 Ha     -312562.48577409 eV
  | XC energy correction          :        -706.03370280 Ha      -19212.15455695 eV
  | XC potential correction       :         918.73977116 Ha       25000.18116839 eV
  | Free-atom electrostatic energy:       -8290.45572509 Ha     -225594.77841574 eV
  | Hartree energy correction     :           0.00000000 Ha           0.00000000 eV
  | vdW energy correction         :           0.00000000 Ha           0.00000000 eV
  | Entropy correction            :           0.00000000 Ha           0.00000000 eV
  | ---------------------------
  | Total energy                  :      -19564.20988349 Ha     -532369.23757839 eV
  | Total energy, T -> 0          :      -19564.20988349 Ha     -532369.23757839 eV  <-- do not rely on this value for anything but (periodic) metals
  | Electronic free energy        :      -19564.20988349 Ha     -532369.23757839 eV

  Derived energy quantities:
  | Kinetic energy                :       19967.66077654 Ha      543347.69495598 eV
  | Electrostatic energy          :      -38825.83695723 Ha    -1056504.77797743 eV
  | Energy correction for multipole
  | error in Hartree potential    :           0.00000000 Ha           0.00000000 eV
  | Sum of eigenvalues per atom                           :      -39070.31072176 eV
  | Total energy (T->0) per atom                          :      -66546.15469730 eV  <-- do not rely on this value for anything but (periodic) metals
  | Electronic free energy per atom                       :      -66546.15469730 eV
  Initialize hartree_potential_storage
  Max. number of atoms included in rho_multipole:            8

  End scf initialization - timings             :  max(cpu_time)    wall_clock(cpu1)
  | Time for scf. initialization               :        0.539 s           0.816 s
  | Boundary condition initialization          :        0.003 s           0.010 s
  | Relaxation initialization                  :        0.009 s           0.018 s
  | Integration                                :        0.144 s           0.169 s
  | Solution of K.-S. eqns.                    :        0.149 s           0.271 s
  | Grid partitioning                          :        0.146 s           0.155 s
  | Preloading free-atom quantities on grid    :        0.062 s           0.074 s
  | Free-atom superposition energy             :        0.012 s           0.013 s
  | Total energy evaluation                    :        0.002 s           0.008 s

  Partial memory accounting:
  | Current value for overall tracked memory usage:
  |   Minimum:        0.826 MB (on task  7)
  |   Maximum:        0.861 MB (on task  0)
  |   Average:        0.834 MB
  | Peak value for overall tracked memory usage:
  |   Minimum:        2.384 MB (on task  9 after allocating wave)
  |   Maximum:        2.462 MB (on task  3 after allocating wave)
  |   Average:        2.426 MB
  | Largest tracked array allocation so far:
  |   Minimum:        0.376 MB (hamiltonian_shell on task  2)
  |   Maximum:        1.374 MB (all_coords on task 21)
  |   Average:        0.497 MB
  Note:  These values currently only include a subset of arrays which are explicitly tracked.
  The "true" memory usage will be greater.
------------------------------------------------------------
  Evaluating new KS density.
  Integration grid: deviation in total charge (<rho> - N_e) =   1.705303E-13

  Time for density update prior                :  max(cpu_time)    wall_clock(cpu1)
  | self-consistency iterative process         :        0.096 s           0.095 s

------------------------------------------------------------
          Begin self-consistency iteration #    1

  Date     :  20210722, Time     :  101451.618
------------------------------------------------------------
  Pulay mixing of updated and previous charge densities.
  Renormalizing the density to the exact electron count on the 3D integration grid.
  | Formal number of electrons (from input files) :     272.0000000000
  | Integrated number of electrons on 3D grid     :     272.0000000000
  | Charge integration error                      :      -0.0000000000
  | Normalization factor for density and gradient :       1.0000000000

  Evaluating partitioned Hartree potential by multipole expansion.
  | Original multipole sum: apparent total charge =  -0.133105E-12
  | Sum of charges compensated after spline to logarithmic grids =   0.186265E-06
  | Analytical far-field extrapolation by fixed multipoles:
  | Hartree multipole sum: apparent total charge =  -0.133117E-12
  Summing up the Hartree potential.
  Time summed over all CPUs for potential: real work        1.374 s, elapsed        1.610 s
  | RMS charge density error from multipole expansion :   0.725861E-03

  Integrating Hamiltonian matrix: batch-based integration.
  Time summed over all CPUs for integration: real work        3.006 s, elapsed        3.179 s

  Updating Kohn-Sham eigenvalues and eigenvectors using ELSI and the ELPA eigensolver.
  Starting ELPA eigensolver
  Finished transformation to standard eigenproblem
  | Time :     0.002 s
  Finished solving standard eigenproblem
  | Time :     0.007 s
  Finished back-transformation of eigenvectors
  | Time :     0.000 s

  Obtaining occupation numbers and chemical potential using ELSI.
  | Chemical potential (Fermi level):    -5.20297362 eV
  Writing Kohn-Sham eigenvalues.

  State    Occupation    Eigenvalue [Ha]    Eigenvalue [eV]
      1       2.00000        -466.351603       -12690.07278
      2       2.00000        -466.351603       -12690.07278
      3       2.00000        -466.351602       -12690.07276
      4       2.00000        -466.351602       -12690.07276
      5       2.00000        -466.351601       -12690.07273
      6       2.00000        -466.351601       -12690.07273
      7       2.00000        -466.351600       -12690.07270
      8       2.00000        -466.351600       -12690.07270
      9       2.00000         -59.217580        -1611.39235
     10       2.00000         -59.217580        -1611.39235
     11       2.00000         -59.217579        -1611.39232
     12       2.00000         -59.217579        -1611.39232
     13       2.00000         -59.217578        -1611.39229
     14       2.00000         -59.217578        -1611.39229
     15       2.00000         -59.217577        -1611.39226
     16       2.00000         -59.217577        -1611.39226
     17       2.00000         -52.076268        -1417.06735
     18       2.00000         -52.076268        -1417.06735
     19       2.00000         -52.076267        -1417.06733
     20       2.00000         -52.076267        -1417.06733
     21       2.00000         -52.076266        -1417.06730
     22       2.00000         -52.076266        -1417.06729
     23       2.00000         -52.076265        -1417.06726
     24       2.00000         -52.076265        -1417.06726
     25       2.00000         -52.075974        -1417.05936
     26       2.00000         -52.075974        -1417.05936
     27       2.00000         -52.075974        -1417.05934
     28       2.00000         -52.075974        -1417.05934
     29       2.00000         -52.075972        -1417.05931
     30       2.00000         -52.075972        -1417.05931
     31       2.00000         -52.075971        -1417.05928
     32       2.00000         -52.075971        -1417.05928
     33       2.00000         -52.075578        -1417.04858
     34       2.00000         -52.075578        -1417.04858
     35       2.00000         -52.075577        -1417.04856
     36       2.00000         -52.075577        -1417.04856
     37       2.00000         -52.075576        -1417.04853
     38       2.00000         -52.075576        -1417.04853
[...]
    166       0.00000           0.199578            5.43079
    167       0.00000           0.214869            5.84688
    168       0.00000           0.214869            5.84688
    169       0.00000           0.225470            6.13536
    170       0.00000           0.225480            6.13564
    171       0.00000           0.246581            6.70982
    172       0.00000           0.246602            6.71037
    173       0.00000           0.248083            6.75069
    174       0.00000           0.254383            6.92213
    175       0.00000           0.280025            7.61986
    176       0.00000           0.281951            7.67227
    177       0.00000           0.281955            7.67240
    178       0.00000           0.321511            8.74875
    179       0.00000           0.321512            8.74878
    180       0.00000           0.355657            9.67791

  Highest occupied state (VBM) at     -6.00694732 eV
  | Occupation number:      2.00000000

  Lowest unoccupied state (CBM) at    -3.47040406 eV
  | Occupation number:      0.00000000

  Overall HOMO-LUMO gap:      2.53654326 eV.

  Self-consistency cycle converged.


------------------------------------------------------------
  End self-consistency iteration #    10       :  max(cpu_time)    wall_clock(cpu1)
  | Time for this iteration                    :        0.619 s           0.620 s
  | Charge density & force component update    :        0.435 s           0.436 s
  | Density mixing                             :        0.004 s           0.004 s
  | Hartree multipole update                   :        0.003 s           0.002 s
  | Hartree multipole summation                :        0.094 s           0.094 s
  | Integration                                :        0.073 s           0.073 s
  | Solution of K.-S. eqns.                    :        0.008 s           0.009 s
  | Total energy evaluation                    :        0.000 s           0.000 s

  Partial memory accounting:
  | Current value for overall tracked memory usage:
  |   Minimum:        0.832 MB (on task  7)
  |   Maximum:        0.879 MB (on task  0)
  |   Average:        0.842 MB
  | Peak value for overall tracked memory usage:
  |   Minimum:        7.229 MB (on task 21 after allocating d_wave)
  |   Maximum:        7.534 MB (on task  5 after allocating d_wave)
  |   Average:        7.402 MB
  | Largest tracked array allocation so far:
  |   Minimum:        1.893 MB (hessian_basis_wave on task  8)
  |   Maximum:        1.971 MB (hessian_basis_wave on task  0)
  |   Average:        1.944 MB
  Note:  These values currently only include a subset of arrays which are explicitly tracked.
  The "true" memory usage will be greater.
------------------------------------------------------------
  Obtaining max. number of non-zero basis functions in each batch .
  Evaluating KS electron density on previously omitted grid points.

  Entering Libmbd.
  Libmbd: VdW method: mbd-nl
  Libmbd: Evaluating kinetic energy density...

  Evaluating density matrix
  Finished density matrix calculation
  | Time :     0.001 s

  Libmbd: Performing Hirshfeld analysis...
  Libmbd: Calculating MBD energy...
  Libmbd: Evaluated energy: -0.11904422405848436E-001

  Leaving Libmbd.


  Total energy components:
  | Sum of eigenvalues            :      -11477.89874472 Ha     -312329.51599471 eV
  | XC energy correction          :        -705.50165900 Ha      -19197.67690857 eV
  | XC potential correction       :         918.00380446 Ha       24980.15449561 eV
  | Free-atom electrostatic energy:       -8295.39857409 Ha     -225729.28018023 eV
  | Hartree energy correction     :          -3.63872982 Ha         -99.01487623 eV
  | vdW energy correction         :          -0.01190442 Ha          -0.32393582 eV
  | Entropy correction            :          -0.00000000 Ha          -0.00000000 eV
  | ---------------------------
  | Total energy                  :      -19564.44580760 Ha     -532375.65739994 eV
  | Total energy, T -> 0          :      -19564.44580760 Ha     -532375.65739994 eV  <-- do not rely on this value for anything but (periodic) metals
  | Electronic free energy        :      -19564.44580760 Ha     -532375.65739994 eV

  Derived energy quantities:
  | Kinetic energy                :       19965.33165885 Ha      543284.31643911 eV
  | Electrostatic energy          :      -38824.26390302 Ha    -1056461.97299467 eV
  | Energy correction for multipole
  | error in Hartree potential    :          -0.00423003 Ha          -0.11510484 eV
  | Sum of eigenvalues per atom                           :      -39041.18949934 eV
  | Total energy (T->0) per atom                          :      -66546.95717499 eV  <-- do not rely on this value for anything but (periodic) metals
  | Electronic free energy per atom                       :      -66546.95717499 eV

  atomic forces [eV/Ang]:
  -----------------------
  atom #    1
   Hellmann-Feynman              :  0.273835E+02 -0.145212E+02  0.509872E+02
   Ionic forces                  :  0.000000E+00  0.000000E+00  0.000000E+00
   Multipole                     :  0.230122E-01 -0.500675E-02 -0.703620E-01
   Pulay + GGA                   : -0.273858E+02  0.145176E+02 -0.509157E+02
   Van der Waals                 : -0.207703E-01  0.855762E-02 -0.969052E-03
   ----------------------------------------------------------------
   Total forces(   1)            : -0.301320E-04  0.136702E-04  0.175027E-03
  atom #    2
   Hellmann-Feynman              :  0.418583E+02  0.145224E+02 -0.399684E+02
   Ionic forces                  :  0.000000E+00  0.000000E+00  0.000000E+00
   Multipole                     :  0.142611E-03  0.502447E-02  0.740574E-01
   Pulay + GGA                   : -0.418383E+02 -0.145189E+02  0.398998E+02
   Van der Waals                 : -0.200458E-01 -0.856101E-02 -0.552840E-02
   ----------------------------------------------------------------
   Total forces(   2)            :  0.482070E-04  0.793341E-06 -0.125526E-03
  atom #    3
   Hellmann-Feynman              :  0.709929E+01  0.350537E+02  0.477614E+02
   Ionic forces                  :  0.000000E+00  0.000000E+00  0.000000E+00
   Multipole                     :  0.165642E-01  0.116872E-01 -0.713224E-01
   Pulay + GGA                   : -0.710702E+01 -0.350447E+02 -0.476909E+02
   Van der Waals                 : -0.882051E-02 -0.206654E-01  0.932162E-03
   ----------------------------------------------------------------
   Total forces(   3)            :  0.178252E-04  0.282212E-05  0.142650E-03
  atom #    4
   Hellmann-Feynman              : -0.709915E+01  0.350537E+02 -0.477615E+02
   Ionic forces                  :  0.000000E+00  0.000000E+00  0.000000E+00
   Multipole                     : -0.165642E-01  0.116873E-01  0.713224E-01
   Pulay + GGA                   :  0.710688E+01 -0.350447E+02  0.476909E+02
   Van der Waals                 :  0.882043E-02 -0.206655E-01 -0.932151E-03
   ----------------------------------------------------------------
   Total forces(   4)            : -0.176470E-04  0.293989E-05 -0.142737E-03
  atom #    5
   Hellmann-Feynman              : -0.273836E+02 -0.145211E+02 -0.509872E+02
   Ionic forces                  :  0.000000E+00  0.000000E+00  0.000000E+00
   Multipole                     : -0.230123E-01 -0.500661E-02  0.703620E-01
   Pulay + GGA                   :  0.273859E+02  0.145175E+02  0.509156E+02
   Van der Waals                 :  0.207703E-01  0.855754E-02  0.969047E-03
   ----------------------------------------------------------------
   Total forces(   5)            :  0.299861E-04  0.142117E-04 -0.175020E-03
  atom #    6
   Hellmann-Feynman              : -0.215776E+02 -0.350558E+02  0.431975E+02
   Ionic forces                  :  0.000000E+00  0.000000E+00  0.000000E+00
   Multipole                     :  0.667436E-02 -0.118175E-01 -0.730186E-01
   Pulay + GGA                   :  0.215628E+02  0.350469E+02 -0.431280E+02
   Van der Waals                 :  0.808919E-02  0.206689E-01  0.362254E-02
   ----------------------------------------------------------------
   Total forces(   6)            : -0.748952E-05 -0.585496E-04  0.112455E-03
  atom #    7
   Hellmann-Feynman              :  0.215775E+02 -0.350560E+02 -0.431974E+02
   Ionic forces                  :  0.000000E+00  0.000000E+00  0.000000E+00
   Multipole                     : -0.667442E-02 -0.118174E-01  0.730185E-01
   Pulay + GGA                   : -0.215627E+02  0.350470E+02  0.431279E+02
   Van der Waals                 : -0.808911E-02  0.206689E-01 -0.362255E-02
   ----------------------------------------------------------------
   Total forces(   7)            :  0.764664E-05 -0.583280E-04 -0.112285E-03
  atom #    8
   Hellmann-Feynman              : -0.418582E+02  0.145226E+02  0.399684E+02
   Ionic forces                  :  0.000000E+00  0.000000E+00  0.000000E+00
   Multipole                     : -0.142586E-03  0.502443E-02 -0.740574E-01
   Pulay + GGA                   :  0.418383E+02 -0.145191E+02 -0.398998E+02
   Van der Waals                 :  0.200458E-01 -0.856109E-02  0.552841E-02
   ----------------------------------------------------------------
   Total forces(   8)            : -0.483973E-04  0.344600E-06  0.125429E-03

  Timings for VdW correction (Tkatchenko-Scheffler 2009 or later):
  | CPU time:        0.137 s, Wall clock time:        0.137 s.
  Removing unitary transformations (pure translations, rotations) from forces on atoms.
  Atomic forces before filtering:
  | Net force on center of mass :  -0.914676E-09 -0.820957E-04 -0.660291E-08 eV/A
  | Net torque on center of mass:   0.226780E-07 -0.259981E-03 -0.875825E-08 eV
  Atomic forces after filtering:
  | Net force on center of mass :   0.000000E+00 -0.367505E-19  0.217781E-19 eV/A
  | Net torque on center of mass:   0.452696E-18  0.460979E-19  0.921958E-19 eV

  Energy and forces in a compact form:
  | Total energy uncorrected      :         -0.532375657399940E+06 eV
  | Total energy corrected        :         -0.532375657399940E+06 eV  <-- do not rely on this value for anything but (periodic) metals
  | Electronic free energy        :         -0.532375657399940E+06 eV
  Total atomic forces (unitary forces cleaned) [eV/Ang]:
  |    1         -0.222796085010993E-04          0.239330320185742E-04          0.155570820496512E-03
  |    2          0.467829314286343E-04          0.110554446567876E-04         -0.146459881537186E-03
  |    3          0.237952646508428E-04          0.130846842789372E-04          0.135022860599136E-03
  |    4         -0.236174160369853E-04          0.132012562492274E-04         -0.135111035284313E-03
  |    5          0.221340996756261E-04          0.244727957428438E-04         -0.155560705101996E-03
  |    6         -0.418192146300202E-05         -0.482874527176358E-04          0.121561382662554E-03
  |    7          0.433977958400931E-05         -0.480661868961624E-04         -0.121385712768192E-03
  |    8         -0.469731293380258E-04          0.106064266674279E-04          0.146362270933483E-03

  ------------------------------------ 
  Start decomposition of the XC Energy 
  ------------------------------------ 
  X and C from original XC functional choice 
  Hartree-Fock Energy :          0.000000000 Ha              0.000000000 eV
  X Energy            :       -692.219241379 Ha         -18836.243935463 eV
  C Energy            :        -13.282417626 Ha           -361.432973108 eV
  Total XC Energy     :       -705.501659005 Ha         -19197.676908571 eV
  ------------------------------------ 
  LDA X and C from self-consistent density 
  X Energy LDA        :       -655.332911248 Ha         -17832.515823466 eV
  C Energy LDA        :        -24.583056520 Ha           -668.939003155 eV
  ------------------------------------ 
  End decomposition of the XC Energy 
  ------------------------------------ 

------------------------------------------------------------
  Relaxation / MD: End force evaluation.       :  max(cpu_time)    wall_clock(cpu1)
  | Time for this force evaluation             :        2.791 s           2.794 s

------------------------------------------------------------
  Geometry optimization: Attempting to predict improved coordinates.

  Removing unitary transformations (pure translations, rotations) from forces on atoms.
  Atomic forces before filtering:
  | Net force on center of mass :   0.000000E+00 -0.367505E-19  0.217781E-19 eV/A
  | Net torque on center of mass:   0.452696E-18  0.460979E-19  0.921958E-19 eV
  Atomic forces after filtering:
  | Net force on center of mass :  -0.163336E-19 -0.408339E-20  0.217781E-19 eV/A
  | Net torque on center of mass:  -0.561818E-19 -0.460979E-19  0.576223E-20 eV
  Net remaining forces (excluding translations, rotations) in present geometry:
  || Forces on atoms   || =   0.155571E-03 eV/A.
  Maximum force component is  0.155571E-03 eV/A.
  Present geometry is converged.

------------------------------------------------------------
  Final atomic structure:
                         x [A]             y [A]             z [A]
            atom         2.54104289        5.64257156        7.80986956  Se
            atom         2.72067518        7.70434502        6.68093319  Se
            atom         1.10120478        9.16215187        7.58083516  Se
            atom        -0.75511958        9.16215530        6.12766358  Se
            atom        -2.19497214        5.64258074        5.89863097  Se
            atom        -0.93485634        4.18472234        7.25674358  Se
            atom         1.28092112        4.18471758        6.45175767  Se
            atom        -2.37459591        7.70435558        7.02756631  Se
------------------------------------------------------------

------------------------------------------------------------------------------
  Final output of selected total energy values:

  The following output summarizes some interesting total energy values
  at the end of a run (AFTER all relaxation, molecular dynamics, etc.).

  | Total energy of the DFT / Hartree-Fock s.c.f. calculation      :        -532375.657399940 eV
  | Final zero-broadening corrected energy (caution - metals only) :        -532375.657399940 eV
  | For reference only, the value of 1 Hartree used in FHI-aims is :             27.211384500 eV

  Before relying on these values, please be sure to understand exactly which
  total energy value is referred to by a given number. Different objects may
  all carry the same name 'total energy'. Definitions:

  Total energy of the DFT / Hartree-Fock s.c.f. calculation:
  | Note that this energy does not include ANY quantities calculated after the
  | s.c.f. cycle, in particular not ANY RPA, MP2, etc. many-body perturbation terms.

  Final zero-broadening corrected energy:
  | For metallic systems only, a broadening of the occupation numbers at the Fermi
  | level can be extrapolated back to zero broadening by an electron-gas inspired
  | formula. For all systems that are not real metals, this value can be
  | meaningless and should be avoided.

------------------------------------------------------------------------------
  Methods described in the following list of references were used in this FHI-aims run.
  If you publish the results, please make sure to cite these reference if they apply.
  FHI-aims is an academic code, and for our developers (often, Ph.D. students
  and postdocs), scientific credit in the community is essential.
  Thank you for helping us!

  For any use of FHI-aims, please cite:

    Volker Blum, Ralf Gehrke, Felix Hanke, Paula Havu, Ville Havu,
    Xinguo Ren, Karsten Reuter, and Matthias Scheffler
    'Ab initio molecular simulations with numeric atom-centered orbitals'
    Computer Physics Communications 180, 2175-2196 (2009)
    http://dx.doi.org/10.1016/j.cpc.2009.06.022


  The ELSI infrastructure was used in your run to solve the Kohn-Sham electronic structure.
  Please check out http://elsi-interchange.org to learn more.
  If scalability is important for your project, please acknowledge ELSI by citing:

    V. W-z. Yu, F. Corsetti, A. Garcia, W. P. Huhn, M. Jacquelin, W. Jia,
    B. Lange, L. Lin, J. Lu, W. Mi, A. Seifitokaldani, A. Vazquez-Mayagoitia,
    C. Yang, H. Yang, and V. Blum
    'ELSI: A unified software interface for Kohn-Sham electronic structure solvers'
    Computer Physics Communications 222, 267-285 (2018).
    http://dx.doi.org/10.1016/j.cpc.2017.09.007


  For the real-space grid partitioning and parallelization used in this calculation, please cite:

    Ville Havu, Volker Blum, Paula Havu, and Matthias Scheffler,
    'Efficient O(N) integration for all-electron electronic structure calculation'
    'using numerically tabulated basis functions'
    Journal of Computational Physics 228, 8367-8379 (2009).
    http://dx.doi.org/10.1016/j.jcp.2009.08.008

  Of course, there are many other important community references, e.g., those cited in the
  above references. Our list is limited to references that describe implementations in the
  FHI-aims code. The reason is purely practical (length of this list) - please credit others as well.

------------------------------------------------------------
          Leaving FHI-aims.
          Date     :  20210722, Time     :  101515.145

          Computational steps:
          | Number of self-consistency cycles          :           86
          | Number of SCF (re)initializations          :            7
          | Number of relaxation steps                 :            6

          Detailed time accounting                     :  max(cpu_time)    wall_clock(cpu1)
          | Total time                                 :       24.977 s          26.327 s
          | Preparation time                           :        0.659 s           1.028 s
          | Boundary condition initalization           :        0.032 s           0.011 s
          | Grid partitioning                          :        0.896 s           0.902 s
          | Preloading free-atom quantities on grid    :        0.190 s           0.203 s
          | Free-atom superposition energy             :        0.058 s           0.059 s
          | Total time for integrations                :        6.918 s           6.946 s
          | Total time for solution of K.-S. equations :        0.949 s           1.078 s
          | Total time for EV reorthonormalization     :        0.050 s           0.052 s
          | Total time for density & force components  :       10.211 s          10.236 s
          | Total time for mixing                      :        0.230 s           0.220 s
          | Total time for Hartree multipole update    :        0.233 s           0.239 s
          | Total time for Hartree multipole sum       :        2.942 s           2.956 s
          | Total time for total energy evaluation     :        0.033 s           0.024 s
          | Total time for scaled ZORA corrections     :        0.000 s           0.000 s
          | Total time for vdW correction              :        1.013 s           1.102 s

          Partial memory accounting:
          | Residual value for overall tracked memory usage across tasks:     0.000000 MB (should be 0.000000 MB)
          | Peak values for overall tracked memory usage:
          |   Minimum:        7.229 MB (on task 21 after allocating d_wave)
          |   Maximum:        7.534 MB (on task  5 after allocating d_wave)
          |   Average:        7.402 MB
          | Largest tracked array allocation:
          |   Minimum:        1.893 MB (hessian_basis_wave on task  8)
          |   Maximum:        1.971 MB (hessian_basis_wave on task  0)
          |   Average:        1.944 MB
          Note:  These values currently only include a subset of arrays which are explicitly tracked.
          The "true" memory usage will be greater.

          Have a nice day.
------------------------------------------------------------
