------------------------------------------------------------
          Invoking FHI-aims ...

          When using FHI-aims, please cite the following reference:

            Volker Blum, Ralf Gehrke, Felix Hanke, Paula Havu,
            Ville Havu, Xinguo Ren, Karsten Reuter, and Matthias Scheffler,
            'Ab Initio Molecular Simulations with Numeric Atom-Centered Orbitals',
            Computer Physics Communications 180, 2175-2196 (2009)

          In addition, many other developments in FHI-aims are likely important for
          your particular application. A partial list of references is given at the end of
          this file. Thank you for giving credit to the authors of these developments.

          For any questions about FHI-aims, please visit our slack channel at

            https://fhi-aims.slack.com

          and our main development and support site at

            https://aims-git.rz-berlin.mpg.de .

          The latter site, in particular, has a wiki to collect information, as well
          as an issue tracker to log discussions, suggest improvements, and report issues
          or bugs. https://aims-git.rz-berlin.mpg.de is also the main development site
          of the project and all new and updated code versions can be obtained there.
          Please send an email to aims-coordinators@fhi-berlin.mpg.de and we will add
          you to these sites. They are for you and everyone is welcome there.

------------------------------------------------------------



  Date     :  20220913, Time     :  133903.418
  Time zero on CPU 1             :   0.330286600000000E+01  s.
  Internal wall clock time zero  :           432308343.418  s.

  FHI-aims created a unique identifier for this run for later identification
  aims_uuid : 739F6BA0-C4AF-4C11-A05A-8C19B346753A

  Build configuration of the current instance of FHI-aims
  -------------------------------------------------------
  FHI-aims version      : 220117
  Commit number         : 0c0e6afe2
  CMake host system     : Linux-5.3.18-24.99-default
  CMake version         : 3.22.0
  Fortran compiler      : /mpcdf/soft/SLE_15/packages/x86_64/intel_oneapi/2021.4/mpi/2021.4.0/bin/mpiifort (Intel) version 2021.4.0.20210910
  Fortran compiler flags: -O3 -ip -fp-model precise
  C compiler            : /mpcdf/soft/SLE_15/packages/x86_64/intel/2021.4.0/bin/icc (Intel) version 2021.4.0.20210910
  C compiler flags      : -O3 -ip -fp-model precise
  C++ compiler          : /mpcdf/soft/SLE_15/packages/x86_64/intel/2021.4.0/bin/icpc (Intel) version 2021.4.0.20210910
  C++ compiler flags    : -O3 -ip -fp-model precise
  Using MPI
  Using ScaLAPACK
  Using LibXC
  Using i-PI
  Using RLSY
  Linking against: /mpcdf/soft/SLE_15/packages/x86_64/intel_oneapi/2021.4/mkl/latest/lib/intel64/libmkl_intel_lp64.so
                   /mpcdf/soft/SLE_15/packages/x86_64/intel_oneapi/2021.4/mkl/latest/lib/intel64/libmkl_sequential.so
                   /mpcdf/soft/SLE_15/packages/x86_64/intel_oneapi/2021.4/mkl/latest/lib/intel64/libmkl_core.so
                   /mpcdf/soft/SLE_15/packages/x86_64/intel_oneapi/2021.4/mkl/latest/lib/intel64/libmkl_blacs_intelmpi_lp64.so
                   /mpcdf/soft/SLE_15/packages/x86_64/intel_oneapi/2021.4/mkl/latest/lib/intel64/libmkl_scalapack_lp64.so

  Using      216 parallel tasks.
  Task        0 on host ravg1151 reporting.
  Task        1 on host ravg1151 reporting.
  Task        2 on host ravg1151 reporting.
  Task        3 on host ravg1151 reporting.
  Task        4 on host ravg1151 reporting.
  Task        5 on host ravg1151 reporting.
  Task        6 on host ravg1151 reporting.
  Task        7 on host ravg1151 reporting.
  Task        8 on host ravg1151 reporting.
  Task        9 on host ravg1151 reporting.
  Task       10 on host ravg1151 reporting.
  Task       11 on host ravg1151 reporting.
  Task       12 on host ravg1151 reporting.
  Task       13 on host ravg1151 reporting.
  Task       14 on host ravg1151 reporting.
  Task       15 on host ravg1151 reporting.
  Task       16 on host ravg1151 reporting.
  Task       17 on host ravg1151 reporting.
  Task       18 on host ravg1151 reporting.
  Task       19 on host ravg1151 reporting.
  Task       20 on host ravg1151 reporting.
  Task       21 on host ravg1151 reporting.
  Task       22 on host ravg1151 reporting.
  Task       23 on host ravg1151 reporting.
  Task       24 on host ravg1151 reporting.
  Task       25 on host ravg1151 reporting.
  Task       26 on host ravg1151 reporting.
  Task       27 on host ravg1151 reporting.
  Task       28 on host ravg1151 reporting.
  Task       29 on host ravg1151 reporting.
  Task       30 on host ravg1151 reporting.
  Task       31 on host ravg1151 reporting.
  Task       32 on host ravg1151 reporting.
  Task       33 on host ravg1151 reporting.
  Task       34 on host ravg1151 reporting.
  Task       35 on host ravg1151 reporting.
  Task       36 on host ravg1151 reporting.
  Task       37 on host ravg1151 reporting.
  Task       38 on host ravg1151 reporting.
  Task       39 on host ravg1151 reporting.
  Task       40 on host ravg1151 reporting.
  Task       41 on host ravg1151 reporting.
  Task       42 on host ravg1151 reporting.
  Task       43 on host ravg1151 reporting.
  Task       44 on host ravg1151 reporting.
  Task       45 on host ravg1151 reporting.
  Task       46 on host ravg1151 reporting.
  Task       47 on host ravg1151 reporting.
  Task       48 on host ravg1151 reporting.
  Task       49 on host ravg1151 reporting.
  Task       50 on host ravg1151 reporting.
  Task       51 on host ravg1151 reporting.
  Task       52 on host ravg1151 reporting.
  Task       53 on host ravg1151 reporting.
  Task       54 on host ravg1151 reporting.
  Task       55 on host ravg1151 reporting.
  Task       56 on host ravg1151 reporting.
  Task       57 on host ravg1151 reporting.
  Task       58 on host ravg1151 reporting.
  Task       59 on host ravg1151 reporting.
  Task       60 on host ravg1151 reporting.
  Task       61 on host ravg1151 reporting.
  Task       62 on host ravg1151 reporting.
  Task       63 on host ravg1151 reporting.
  Task       64 on host ravg1151 reporting.
  Task       65 on host ravg1151 reporting.
  Task       66 on host ravg1151 reporting.
  Task       67 on host ravg1151 reporting.
  Task       68 on host ravg1151 reporting.
  Task       69 on host ravg1151 reporting.
  Task       70 on host ravg1151 reporting.
  Task       71 on host ravg1151 reporting.
  Task       72 on host ravg1160 reporting.
  Task       73 on host ravg1160 reporting.
  Task       74 on host ravg1160 reporting.
  Task       75 on host ravg1160 reporting.
  Task       76 on host ravg1160 reporting.
  Task       77 on host ravg1160 reporting.
  Task       78 on host ravg1160 reporting.
  Task       79 on host ravg1160 reporting.
  Task       80 on host ravg1160 reporting.
  Task       81 on host ravg1160 reporting.
  Task       82 on host ravg1160 reporting.
  Task       83 on host ravg1160 reporting.
  Task       84 on host ravg1160 reporting.
  Task       85 on host ravg1160 reporting.
  Task       86 on host ravg1160 reporting.
  Task       87 on host ravg1160 reporting.
  Task       88 on host ravg1160 reporting.
  Task       89 on host ravg1160 reporting.
  Task       90 on host ravg1160 reporting.
  Task       91 on host ravg1160 reporting.
  Task       92 on host ravg1160 reporting.
  Task       93 on host ravg1160 reporting.
  Task       94 on host ravg1160 reporting.
  Task       95 on host ravg1160 reporting.
  Task       96 on host ravg1160 reporting.
  Task       97 on host ravg1160 reporting.
  Task       98 on host ravg1160 reporting.
  Task       99 on host ravg1160 reporting.
  Task      100 on host ravg1160 reporting.
  Task      101 on host ravg1160 reporting.
  Task      102 on host ravg1160 reporting.
  Task      103 on host ravg1160 reporting.
  Task      104 on host ravg1160 reporting.
  Task      105 on host ravg1160 reporting.
  Task      106 on host ravg1160 reporting.
  Task      107 on host ravg1160 reporting.
  Task      108 on host ravg1160 reporting.
  Task      109 on host ravg1160 reporting.
  Task      110 on host ravg1160 reporting.
  Task      111 on host ravg1160 reporting.
  Task      112 on host ravg1160 reporting.
  Task      113 on host ravg1160 reporting.
  Task      114 on host ravg1160 reporting.
  Task      115 on host ravg1160 reporting.
  Task      116 on host ravg1160 reporting.
  Task      117 on host ravg1160 reporting.
  Task      118 on host ravg1160 reporting.
  Task      119 on host ravg1160 reporting.
  Task      120 on host ravg1160 reporting.
  Task      121 on host ravg1160 reporting.
  Task      122 on host ravg1160 reporting.
  Task      123 on host ravg1160 reporting.
  Task      124 on host ravg1160 reporting.
  Task      125 on host ravg1160 reporting.
  Task      126 on host ravg1160 reporting.
  Task      127 on host ravg1160 reporting.
  Task      128 on host ravg1160 reporting.
  Task      129 on host ravg1160 reporting.
  Task      130 on host ravg1160 reporting.
  Task      131 on host ravg1160 reporting.
  Task      132 on host ravg1160 reporting.
  Task      133 on host ravg1160 reporting.
  Task      134 on host ravg1160 reporting.
  Task      135 on host ravg1160 reporting.
  Task      136 on host ravg1160 reporting.
  Task      137 on host ravg1160 reporting.
  Task      138 on host ravg1160 reporting.
  Task      139 on host ravg1160 reporting.
  Task      140 on host ravg1160 reporting.
  Task      141 on host ravg1160 reporting.
  Task      142 on host ravg1160 reporting.
  Task      143 on host ravg1160 reporting.
  Task      144 on host ravg1161 reporting.
  Task      145 on host ravg1161 reporting.
  Task      146 on host ravg1161 reporting.
  Task      147 on host ravg1161 reporting.
  Task      148 on host ravg1161 reporting.
  Task      149 on host ravg1161 reporting.
  Task      150 on host ravg1161 reporting.
  Task      151 on host ravg1161 reporting.
  Task      152 on host ravg1161 reporting.
  Task      153 on host ravg1161 reporting.
  Task      154 on host ravg1161 reporting.
  Task      155 on host ravg1161 reporting.
  Task      156 on host ravg1161 reporting.
  Task      157 on host ravg1161 reporting.
  Task      158 on host ravg1161 reporting.
  Task      159 on host ravg1161 reporting.
  Task      160 on host ravg1161 reporting.
  Task      161 on host ravg1161 reporting.
  Task      162 on host ravg1161 reporting.
  Task      163 on host ravg1161 reporting.
  Task      164 on host ravg1161 reporting.
  Task      165 on host ravg1161 reporting.
  Task      166 on host ravg1161 reporting.
  Task      167 on host ravg1161 reporting.
  Task      168 on host ravg1161 reporting.
  Task      169 on host ravg1161 reporting.
  Task      170 on host ravg1161 reporting.
  Task      171 on host ravg1161 reporting.
  Task      172 on host ravg1161 reporting.
  Task      173 on host ravg1161 reporting.
  Task      174 on host ravg1161 reporting.
  Task      175 on host ravg1161 reporting.
  Task      176 on host ravg1161 reporting.
  Task      177 on host ravg1161 reporting.
  Task      178 on host ravg1161 reporting.
  Task      179 on host ravg1161 reporting.
  Task      180 on host ravg1161 reporting.
  Task      181 on host ravg1161 reporting.
  Task      182 on host ravg1161 reporting.
  Task      183 on host ravg1161 reporting.
  Task      184 on host ravg1161 reporting.
  Task      185 on host ravg1161 reporting.
  Task      186 on host ravg1161 reporting.
  Task      187 on host ravg1161 reporting.
  Task      188 on host ravg1161 reporting.
  Task      189 on host ravg1161 reporting.
  Task      190 on host ravg1161 reporting.
  Task      191 on host ravg1161 reporting.
  Task      192 on host ravg1161 reporting.
  Task      193 on host ravg1161 reporting.
  Task      194 on host ravg1161 reporting.
  Task      195 on host ravg1161 reporting.
  Task      196 on host ravg1161 reporting.
  Task      197 on host ravg1161 reporting.
  Task      198 on host ravg1161 reporting.
  Task      199 on host ravg1161 reporting.
  Task      200 on host ravg1161 reporting.
  Task      201 on host ravg1161 reporting.
  Task      202 on host ravg1161 reporting.
  Task      203 on host ravg1161 reporting.
  Task      204 on host ravg1161 reporting.
  Task      205 on host ravg1161 reporting.
  Task      206 on host ravg1161 reporting.
  Task      207 on host ravg1161 reporting.
  Task      208 on host ravg1161 reporting.
  Task      209 on host ravg1161 reporting.
  Task      210 on host ravg1161 reporting.
  Task      211 on host ravg1161 reporting.
  Task      212 on host ravg1161 reporting.
  Task      213 on host ravg1161 reporting.
  Task      214 on host ravg1161 reporting.
  Task      215 on host ravg1161 reporting.

  Performing system and environment tests:
  | Environment variable OMP_NUM_THREADS correctly set to 1.
  | Checking for ScaLAPACK...
  | Testing pdtran()...
  | All pdtran() tests passed.

  Obtaining array dimensions for all initial allocations:
  
  -----------------------------------------------------------------------
  Parsing control.in (first pass over file, find array dimensions only).
  The contents of control.in will be repeated verbatim below
  unless switched off by setting 'verbatim_writeout .false.' .
  in the first line of control.in .
  -----------------------------------------------------------------------
  
  ##### Physical settings  ################
  xc                 pbe
  spin               collinear
  default_initial_moment 1
  charge      0.0
  relativistic       atomic_zora scalar
  #elsi_restart read
  # SCF settings
  #vdw_correction_hirshfeld
  occupation_type gaussian       0.01
  # k-grid settings  (to be adjusted)
  k_grid  2 2 1
  elsi_restart read_and_write 10
  empty_states 8
  include_spin_orbit non_self_consistent
  use_dipole_correction
  #output cube stm -0.5
  #mixer   pulay
  #n_max_pulay        12 # high for metal
  #charge_mix_param   0.07 #low for metal
  
  #output cube stm -0.5
  many_body_dispersion_nl    beta=0.81
  ################################################################################
  #
  #  FHI-aims code project
  # Volker Blum, Fritz Haber Institute Berlin, 2009
  #
  #  Suggested "tight" defaults for S atom (to be pasted into control.in file)
  #
  #  Revised Jan 04, 2011, following tests (SiC) done by Lydia Nemec:
  #     d and g functions of tier 2 now enabled by default.
  #
  ################################################################################
    species        S
  #     global species definitions
      nucleus             16
      mass                32.065
  #
      l_hartree           6
  #
      cut_pot             4.0          2.0  1.0
      basis_dep_cutoff    1e-4
  #
      radial_base         44 7.0
      radial_multiplier   2
      angular_grids       specified
        division   0.4665  110
        division   0.5810  194
        division   0.7139  302
        division   0.8274  434
  #      division   0.9105  590
  #      division   1.0975  770
  #      division   1.2028  974
  #      outer_grid  974
        outer_grid  434
  ################################################################################
  #
  #  Definition of "minimal" basis
  #
  ################################################################################
  #     valence basis states
      valence      3  s   2.
      valence      3  p   4.
  #     ion occupancy
      ion_occ      3  s   1.
      ion_occ      3  p   3.
  ################################################################################
  #
  #  Suggested additional basis functions. For production calculations,
  #  uncomment them one after another (the most important basis functions are
  #  listed first).
  #
  #  Constructed for dimers: 1.6 A, 1.9 A, 2.5 A, 3.25 A, 4.0 A
  #
  ################################################################################
  #  "First tier" - improvements: -652.81 meV to -45.53 meV
       ionic 3 d auto
       hydro 2 p 1.8
       hydro 4 f 7
       ionic 3 s auto
  #  "Second tier" - improvements: -30.20 meV to -1.74 meV
       hydro 4 d 6.2
       hydro 5 g 10.8
  #     hydro 4 p 4.9
  #     hydro 5 f 10
  #     hydro 1 s 0.8
  #  "Third tier" - improvements: -1.04 meV to -0.20 meV
  #     hydro 3 d 3.9
  #     hydro 3 d 2.7
  #     hydro 5 g 12
  #     hydro 4 p 10.4
  #     hydro 5 f 12.4
  #     hydro 2 s 1.9
  #  "Fourth tier" - improvements: -0.35 meV to -0.06 meV
  #     hydro 4 d 10.4
  #     hydro 4 p 7.2
  #     hydro 4 d 10
  #     hydro 5 g 19.2
  #     hydro 4 s 12
  
  ################################################################################
  #
  # For methods that use the localized form of the "resolution of identity" for
  # the two-electron Coulomb operator (RI_method LVL), particularly Hartree-Fock and
  # hybrid density functional calculations, the highest accuracy can be obtained by
  # uncommenting the line beginning with "for_aux"  below, thus adding an extra g radial
  # function to the construction of the product basis set for the expansion.
  # See Ref. New J. Phys. 17, 093020 (2015) for more information, particularly Figs. 1 and 6.
  #
  ################################################################################
  #
  # for_aux hydro 5 g 6.0
  ################################################################################
  #
  #  FHI-aims code project
  # Volker Blum, Fritz Haber Institute Berlin, 2009
  #
  #  Suggested "tight" defaults for Mo atom (to be pasted into control.in file)
  #
  ################################################################################
    species        Mo
  #     global species definitions
      nucleus             42
      mass                95.94
  #
      l_hartree           6
  #
      cut_pot             4.0  2.0  1.0
      basis_dep_cutoff    1e-4
  #
      radial_base         59 7.0
      radial_multiplier   2
      angular_grids specified
        division   0.3117   50
        division   0.6750  110
        division   1.0351  194
        division   1.2073  302
        division   1.6402  434
  #      division   1.9185  590
  #      division   2.0237  770
  #      division   2.0980  974
  #      division   2.7972 1202
  #      outer_grid  974
        outer_grid  434
  ################################################################################
  #
  #  Definition of "minimal" basis
  #
  ################################################################################
  #     valence basis states
      valence      5  s   1.
      valence      4  p   6.
      valence      4  d   5.
  #     ion occupancy
      ion_occ     5  s   0.
      ion_occ     4  p   6.
      ion_occ     4  d   4.
  ################################################################################
  #
  #  Suggested additional basis functions. For production calculations,
  #  uncomment them one after another (the most important basis functions are
  #  listed first).
  #
  #  Constructed for dimers: 1.675 A, 1.9 A, 2.375 A, 3.00 A, 4.00 A
  #
  ################################################################################
  #  "First tier"  - max. impr. -711.23  meV, min. impr. -21.07 meV
       hydro 4 f 8.4
       hydro 3 d 2.8
       ionic 5 p auto
       hydro 5 g 12
       ionic 5 s auto
  #  "Second tier" - max. impr. -39.38  meV, min. impr. -2.68 meV
  #     hydro 4 f 12.4
  #     hydro 3 d 3.3
  #     hydro 6 h 17.2
  #     hydro 4 f 7.6
  #     hydro 3 p 3.0
  #     hydro 1 s 0.65
  #  "Third tier"  - max. impr. -5.50 meV, min. impr. -0.47 meV
  #     hydro 4 f 29.2
  #     hydro 5 g 11.2
  #     hydro 3 d 6.8
  #     hydro 6 h 14.8
  #     hydro 2 p 2.3
  #     hydro 4 s 3.8
  #  "Fourth tier"  - max. impr. -0.58 meV, min. impr. -0.19 meV
  #     hydro 5 f 6.8
  #     hydro 5 d 14.8
  #     hydro 6 s 7.8
  #     hydro 5 g 20.8
  #     hydro 5 d 10.4
  #     hydro 5 p 9.8
  #  Further functions - -0.17 meV and below
  #     hydro 5 d 3.2
  ################################################################################
  #
  #  FHI-aims code project
  # Volker Blum, Fritz Haber Institute Berlin, 2009
  #
  #  Suggested "tight" defaults for W atom (to be pasted into control.in file)
  #
  ################################################################################
    species          W
  #     global species definitions
      nucleus        74
      mass           183.84
  #
      l_hartree      6
  #
      cut_pot        4.0  2.0  1.0
      basis_dep_cutoff    1e-4
  #
      radial_base    71  7.0
      radial_multiplier  2
      angular_grids specified
        division   0.2901   50
        division   0.6986  110
        division   1.0528  194
        division   1.2659  302
        division   1.5223  434
  #      division   1.8111  590
  #      division   2.0105  770
  #      division   2.0413  974
  #      division   2.8804 1202
  #      outer_grid  974
        outer_grid  434
  ################################################################################
  #
  #  Definition of "minimal" basis
  #
  ################################################################################
  #     valence basis states
      valence      6  s   2.
      valence      5  p   6.
      valence      5  d   4.
      valence      4  f  14.
  #     ion occupancy
      ion_occ      6  s   1.
      ion_occ      5  p   6.
      ion_occ      5  d   3.
      ion_occ      4  f  14.
  ################################################################################
  #
  #  Suggested additional basis functions. For production calculations,
  #  uncomment them one after another (the most important basis functions are
  #  listed first).
  #
  #  Constructed for dimers: 1.775, 1.99, 2.50, 3.25, 4.50 AA
  #
  ################################################################################
  #
  #  "First tier" - improvements: -603.77 meV to -28.99 meV
       hydro 4 f 7.8
       hydro 4 d 5.8
       ionic 6 p auto
       hydro 5 g 12.4
       ionic 6 s auto
  #  "Second tier" - improvements: -28.30 meV to -1.31 meV
  #     hydro 6 h 16.8
  #     ionic 5 d auto
  #     hydro 4 f 8.6
  #     hydro 5 g 16.8
  #     hydro 5 d 8.4
  #     hydro 3 p 3.3
  #     hydro 1 s 0.55
  #  "Third tier" - max. impr. -1.79 meV, min. impr. -0.26 meV
  #     hydro 5 f 10.8
  #     hydro 5 g 34.4
  #     hydro 6 h 20.8
  #     hydro 5 g 12.8
  #     hydro 2 p 1.6
  #     hydro 4 s 4.7
  #     hydro 6 d 18.4
  #  "Fourth tier" -0.46 max. impr. - meV, min. impr. -0.09 meV
  #     hydro 6 h 21.6
  #     hydro 5 f 22.4
  #     hydro 4 f 4
  #     hydro 5 p 9.6
  #     hydro 6 d 17.2
  #     hydro 3 p 5.2
  #     hydro 5 g 4.7
  #     hydro 6 s 7.6
  ################################################################################
  #
  #  FHI-aims code project
  # Volker Blum, Fritz Haber Institute Berlin, 2009
  #
  #  Suggested "tight" defaults for Se atom (to be pasted into control.in file)
  #
  ################################################################################
    species        Se
  #     global species definitions
      nucleus             34
      mass                78.96
  #
      l_hartree           6
  #
      cut_pot             4.0          2.0  1.0
      basis_dep_cutoff    1e-4
  #
      radial_base         55 7.0
      radial_multiplier   2
      angular_grids       specified
        division   0.0830  110
        division   0.1357  194
        division   0.7377  302
        division   0.8610  434
  #      division   0.9640  590
  #      division   1.0773  770
  #      division   2.5539  974
  #      outer_grid  974
        outer_grid  434
  ################################################################################
  #
  #  Definition of "minimal" basis
  #
  ################################################################################
  #     valence basis states
      valence      4  s   2.
      valence      4  p   4.
      valence      3  d  10.
  #     ion occupancy
      ion_occ      4  s   1.
      ion_occ      4  p   3.
      ion_occ      3  d  10.
  ################################################################################
  #
  #  Suggested additional basis functions. For production calculations,
  #  uncomment them one after another (the most important basis functions are
  #  listed first).
  #
  #  Constructed for dimers: 1.85 A, 2.15 A, 2.50 A, 3.00 A, 4.00 A
  #
  ################################################################################
  #  "First tier" - improvements: -336.21 meV to -36.85 meV
       hydro 3 d 4.3
       hydro 2 p 1.6
       hydro 4 f 7.2
       ionic 4 s auto
  #  "Second tier" - improvements: -14.39 meV to -1.49 meV
  #     hydro 5 g 10.4
  #     hydro 4 p 4.5
  #     hydro 4 d 6.2
  #     hydro 4 f 11.2
  #     hydro 1 s 0.65
  #     hydro 6 h 15.2
  #  "Third tier" - improvements: -0.46 meV and below
  #     hydro 5 g 14.4
  #     ionic 4 d auto
  #     hydro 4 f 22.4
  #     hydro 5 f 7.4
  #     hydro 5 p 8
  #     hydro 5 s 9.4
  #  "Fourth tier" - improvements: -0.12 meV and below
  #     hydro 5 d 11.6
  #     hydro 6 h 18
  #     hydro 4 p 4
  #     hydro 5 f 16
  #     hydro 4 s 3.9
  
  
  
  -----------------------------------------------------------------------
  Completed first pass over input file control.in .
  -----------------------------------------------------------------------
  
  
  -----------------------------------------------------------------------
  Parsing geometry.in (first pass over file, find array dimensions only).
  The contents of geometry.in will be repeated verbatim below
  unless switched off by setting 'verbatim_writeout .false.' .
  in the first line of geometry.in .
  -----------------------------------------------------------------------
  
  #
  # This is the geometry file that corresponds to the current relaxation step.
  # If you do not want this file to be written, set the "write_restart_geometry" flag to .false.
  #  aims_uuid : 71945F8D-51DB-443A-A07A-92CB8DE48856
  #
    set_vacuum_level        52.613254
  lattice_vector     16.41708800      0.00000000      0.00000000
  lattice_vector     -8.21125790     14.21583190      0.00000000
  lattice_vector      0.00000000      0.00000000     99.89650741
  atom       0.04992380      1.02962161      2.66500000 Mo
  atom       1.69153716      1.97730848      4.34345594 Se
  atom       1.69153716      1.97730848      0.98654406 Se
  atom      -1.59233548      3.87279788      2.66500000 Mo
  atom       0.04928299      4.82046065      4.34344781 Se
  atom       0.04928299      4.82046065      0.98655219 Se
  atom      -3.23455678      6.71596384      2.66500000 Mo
  atom      -1.59295583      7.66364270      4.34343959 Se
  atom      -1.59295583      7.66364270      0.98656041 Se
  atom      -4.87683375      9.55910695      2.66500000 Mo
  atom      -3.23522213     10.50680388      4.34345859 Se
  atom      -3.23522213     10.50680388      0.98654141 Se
  atom      -6.51907109     12.40230193      2.66500000 Mo
  atom      -4.87745870     13.34997235      4.34342941 Se
  atom      -4.87745870     13.34997235      0.98657059 Se
  atom       3.33332503      1.02961547      2.66500000 Mo
  atom       4.97495971      1.97730930      4.34345087 Se
  atom       4.97495971      1.97730930      0.98654913 Se
  atom       1.69111956      3.87280495      2.66500000 Mo
  atom       3.33270906      4.82046369      4.34345626 Se
  atom       3.33270906      4.82046369      0.98654374 Se
  atom       0.04884078      6.71594495      2.66500000 Mo
  atom       1.69044878      7.66364101      4.34343839 Se
  atom       1.69044878      7.66364101      0.98656161 Se
  atom      -1.59344813      9.55912581      2.66500000 Mo
  atom       0.04820620     10.50679749      4.34345913 Se
  atom       0.04820620     10.50679749      0.98654087 Se
  atom      -3.23565076     12.40230299      2.66500000 Mo
  atom      -1.59404916     13.34997142      4.34344715 Se
  atom      -1.59404916     13.34997142      0.98655285 Se
  atom       6.61675003      1.02961526      2.66500000 Mo
  atom       8.25837980      1.97730511      4.34345311 Se
  atom       8.25837980      1.97730511      0.98654689 Se
  atom       4.97449628      3.87279356      2.66500000 Mo
  atom       6.61612496      4.82046795      4.34344494 Se
  atom       6.61612496      4.82046795      0.98655506 Se
  atom       3.33224485      6.71597079      2.66500000 Mo
  atom       4.97387420      7.66363884      4.34343735 Se
  atom       4.97387420      7.66363884      0.98656265 Se
  atom       1.69001186      9.55913729      2.66500000 Mo
  atom       3.33162955     10.50680495      4.34345234 Se
  atom       3.33162955     10.50680495      0.98654766 Se
  atom       0.04775598     12.40228636      2.66500000 Mo
  atom       1.68937539     13.34996856      4.34345006 Se
  atom       1.68937539     13.34996856      0.98654994 Se
  atom       9.90015792      1.02964392      2.66500000 Mo
  atom      11.54178843      1.97729591      4.34345253 Se
  atom      11.54178843      1.97729591      0.98654747 Se
  atom       8.25792511      3.87279889      2.66500000 Mo
  atom       9.89954151      4.82046711      4.34345797 Se
  atom       9.89954151      4.82046711      0.98654203 Se
  atom       6.61567328      6.71596191      2.66500000 Mo
  atom       8.25729244      7.66363481      4.34344626 Se
  atom       8.25729244      7.66363481      0.98655374 Se
  atom       4.97341861      9.55911696      2.66500000 Mo
  atom       6.61503273     10.50679864      4.34346421 Se
  atom       6.61503273     10.50679864      0.98653579 Se
  atom       3.33116172     12.40228348      2.66500000 Mo
  atom       4.97278152     13.34996486      4.34344308 Se
  atom       4.97278152     13.34996486      0.98655692 Se
  atom      13.18360294      1.02963574      2.66500000 Mo
  atom      14.82522662      1.97730244      4.34343280 Se
  atom      14.82522662      1.97730244      0.98656720 Se
  atom      11.54134175      3.87278790      2.66500000 Mo
  atom      13.18295093      4.82047916      4.34345956 Se
  atom      13.18295093      4.82047916      0.98654044 Se
  atom       9.89907364      6.71595925      2.66500000 Mo
  atom      11.54070727      7.66364326      4.34344952 Se
  atom      11.54070727      7.66364326      0.98655048 Se
  atom       8.25683673      9.55912042      2.66500000 Mo
  atom       9.89846299     10.50679996      4.34343661 Se
  atom       9.89846299     10.50679996      0.98656339 Se
  atom       6.61458080     12.40230694      2.66500000 Mo
  atom       8.25620121     13.34997090      4.34345930 Se
  atom       8.25620121     13.34997090      0.98654070 Se
  #
  # What follows is the current estimated Hessian matrix constructed by the BFGS algorithm.
  # This is NOT the true Hessian matrix of the system.
  # If you do not want this information here, switch it off using the "hessian_to_restart_geometry" keyword.
  #
  
  -----------------------------------------------------------------------
  Completed first pass over input file geometry.in .
  -----------------------------------------------------------------------
  

  Basic array size parameters:
  | Number of species                 :        4
  | Number of atoms                   :       75
  | Number of lattice vectors         :        3
  | Max. basis fn. angular momentum   :        4
  | Max. atomic/ionic basis occupied n:        6
  | Max. number of basis fn. types    :        3
  | Max. radial fns per species/type  :       14
  | Max. logarithmic grid size        :     1483
  | Max. radial integration grid size :      143
  | Max. angular integration grid size:      434
  | Max. angular grid division number :        8
  | Radial grid for Hartree potential :     1483
  | Number of spin channels           :        2

------------------------------------------------------------
          Reading file control.in.
------------------------------------------------------------
  XC: Using PBE gradient-corrected functionals.
  Spin treatment: Spin density functional theory - collinear spins.
  Initial spin moment per atom:   1.0000
  Charge =   0.000000E+00: Neutral system requested explicitly.
  Scalar relativistic treatment of kinetic energy: on-site free-atom approximation to ZORA.
  Occupation type: Gaussian broadening, width =   0.100000E-01 eV.
  Found k-point grid:         2         2         1
  Number of empty states per atom:        8
  Calculating non-self-consistent second-variational spin-orbit coupling after scf-cycle
  You have request a SOC run with spin-polarization.
  symmetry_reduced_k_grid will be turned off.
  Using dipole correction.
  Using libMBD for calculating MBD and TS energies
 
  Reading configuration options for species S                   .
  | Found nuclear charge :  16.0000
  | Found atomic mass :    32.0650000000000      amu
  | Found l_max for Hartree potential  :   6
  | Found cutoff potl. onset [A], width [A], scale factor :    4.00000    2.00000    1.00000
  | Threshold for basis-dependent cutoff potential is   0.100000E-03
  | Found data for basic radial integration grid :    44 points, outermost radius =    7.000 A
  | Found multiplier for basic radial grid :   2
  | Found angular grid specification: user-specified.
  | Specified grid contains     5 separate shells.
  | Check grid settings after all constraints further below.
  | Found free-atom valence shell :  3 s   2.000
  | Found free-atom valence shell :  3 p   4.000
  | Found free-ion valence shell :  3 s   1.000
  | Found free-ion valence shell :  3 p   3.000
  | Found ionic basis function :  3 d , default cutoff radius.
  | Found hydrogenic basis function :  2 p   1.800
  | Found hydrogenic basis function :  4 f   7.000
  | Found ionic basis function :  3 s , default cutoff radius.
  | Found hydrogenic basis function :  4 d   6.200
  | Found hydrogenic basis function :  5 g  10.800
  Species S                   : Missing cutoff potential type.
  Defaulting to exp(1/x)/(1-x)^2 type cutoff potential.
  Species S : No 'logarithmic' tag. Using default grid for free atom:
  | Default logarithmic grid data [bohr] : 0.1000E-03 0.1000E+03 0.1012E+01
  | Will include ionic basis functions of  2.0-fold positive S                    ion.
  Species S : On-site basis accuracy parameter (for Gram-Schmidt orthonormalisation) not specified.
  Using default value basis_acc =  0.1000000E-03.
  Species S                   : Using default innermost maximum threshold i_radial=  2 for radial functions.
  Species S                   : Default cutoff onset for free atom density etc. : 0.40000000E+01 AA.
  Species S                   : Basic radial grid will be enhanced according to radial_multiplier =   2, to contain    89 grid points.
 
  Reading configuration options for species Mo                  .
  | Found nuclear charge :  42.0000
  | Found atomic mass :    95.9400000000000      amu
  | Found l_max for Hartree potential  :   6
  | Found cutoff potl. onset [A], width [A], scale factor :    4.00000    2.00000    1.00000
  | Threshold for basis-dependent cutoff potential is   0.100000E-03
  | Found data for basic radial integration grid :    59 points, outermost radius =    7.000 A
  | Found multiplier for basic radial grid :   2
  | Found angular grid specification: user-specified.
  | Specified grid contains     6 separate shells.
  | Check grid settings after all constraints further below.
  | Found free-atom valence shell :  5 s   1.000
  | Found free-atom valence shell :  4 p   6.000
  | Found free-atom valence shell :  4 d   5.000
  | Found free-ion valence shell :  5 s   0.000
  | Found free-ion valence shell :  4 p   6.000
  | Found free-ion valence shell :  4 d   4.000
  | Found hydrogenic basis function :  4 f   8.400
  | Found hydrogenic basis function :  3 d   2.800
  | Found ionic basis function :  5 p , default cutoff radius.
  | Found hydrogenic basis function :  5 g  12.000
  | Found ionic basis function :  5 s , default cutoff radius.
  Species Mo                  : Missing cutoff potential type.
  Defaulting to exp(1/x)/(1-x)^2 type cutoff potential.
  Species Mo: No 'logarithmic' tag. Using default grid for free atom:
  | Default logarithmic grid data [bohr] : 0.1000E-03 0.1000E+03 0.1012E+01
  | Will include ionic basis functions of  2.0-fold positive Mo                   ion.
  Species Mo: On-site basis accuracy parameter (for Gram-Schmidt orthonormalisation) not specified.
  Using default value basis_acc =  0.1000000E-03.
  Species Mo                  : Using default innermost maximum threshold i_radial=  2 for radial functions.
  Species Mo                  : Default cutoff onset for free atom density etc. : 0.40000000E+01 AA.
  Species Mo                  : Basic radial grid will be enhanced according to radial_multiplier =   2, to contain   119 grid points.
 
  Reading configuration options for species W                   .
  | Found nuclear charge :  74.0000
  | Found atomic mass :    183.840000000000      amu
  | Found l_max for Hartree potential  :   6
  | Found cutoff potl. onset [A], width [A], scale factor :    4.00000    2.00000    1.00000
  | Threshold for basis-dependent cutoff potential is   0.100000E-03
  | Found data for basic radial integration grid :    71 points, outermost radius =    7.000 A
  | Found multiplier for basic radial grid :   2
  | Found angular grid specification: user-specified.
  | Specified grid contains     6 separate shells.
  | Check grid settings after all constraints further below.
  | Found free-atom valence shell :  6 s   2.000
  | Found free-atom valence shell :  5 p   6.000
  | Found free-atom valence shell :  5 d   4.000
  | Found free-atom valence shell :  4 f  14.000
  | Found free-ion valence shell :  6 s   1.000
  | Found free-ion valence shell :  5 p   6.000
  | Found free-ion valence shell :  5 d   3.000
  | Found free-ion valence shell :  4 f  14.000
  | Found hydrogenic basis function :  4 f   7.800
  | Found hydrogenic basis function :  4 d   5.800
  | Found ionic basis function :  6 p , default cutoff radius.
  | Found hydrogenic basis function :  5 g  12.400
  | Found ionic basis function :  6 s , default cutoff radius.
  Species W                   : Missing cutoff potential type.
  Defaulting to exp(1/x)/(1-x)^2 type cutoff potential.
  Species W : No 'logarithmic' tag. Using default grid for free atom:
  | Default logarithmic grid data [bohr] : 0.1000E-03 0.1000E+03 0.1012E+01
  | Will include ionic basis functions of  2.0-fold positive W                    ion.
  Species W : On-site basis accuracy parameter (for Gram-Schmidt orthonormalisation) not specified.
  Using default value basis_acc =  0.1000000E-03.
  Species W                   : Using default innermost maximum threshold i_radial=  2 for radial functions.
  Species W                   : Default cutoff onset for free atom density etc. : 0.40000000E+01 AA.
  Species W                   : Basic radial grid will be enhanced according to radial_multiplier =   2, to contain   143 grid points.
 
  Reading configuration options for species Se                  .
  | Found nuclear charge :  34.0000
  | Found atomic mass :    78.9600000000000      amu
  | Found l_max for Hartree potential  :   6
  | Found cutoff potl. onset [A], width [A], scale factor :    4.00000    2.00000    1.00000
  | Threshold for basis-dependent cutoff potential is   0.100000E-03
  | Found data for basic radial integration grid :    55 points, outermost radius =    7.000 A
  | Found multiplier for basic radial grid :   2
  | Found angular grid specification: user-specified.
  | Specified grid contains     5 separate shells.
  | Check grid settings after all constraints further below.
  | Found free-atom valence shell :  4 s   2.000
  | Found free-atom valence shell :  4 p   4.000
  | Found free-atom valence shell :  3 d  10.000
  | Found free-ion valence shell :  4 s   1.000
  | Found free-ion valence shell :  4 p   3.000
  | Found free-ion valence shell :  3 d  10.000
  | Found hydrogenic basis function :  3 d   4.300
  | Found hydrogenic basis function :  2 p   1.600
  | Found hydrogenic basis function :  4 f   7.200
  | Found ionic basis function :  4 s , default cutoff radius.
  Species Se                  : Missing cutoff potential type.
  Defaulting to exp(1/x)/(1-x)^2 type cutoff potential.
  Species Se: No 'logarithmic' tag. Using default grid for free atom:
  | Default logarithmic grid data [bohr] : 0.1000E-03 0.1000E+03 0.1012E+01
  | Will include ionic basis functions of  2.0-fold positive Se                   ion.
  Species Se: On-site basis accuracy parameter (for Gram-Schmidt orthonormalisation) not specified.
  Using default value basis_acc =  0.1000000E-03.
  Species Se                  : Using default innermost maximum threshold i_radial=  2 for radial functions.
  Species Se                  : Default cutoff onset for free atom density etc. : 0.40000000E+01 AA.
  Species Se                  : Basic radial grid will be enhanced according to radial_multiplier =   2, to contain   111 grid points.
 
  Finished reading input file 'control.in'.
 
------------------------------------------------------------


------------------------------------------------------------
          Reading geometry description geometry.in.
------------------------------------------------------------
  Vacuum level in z-axis :   0.526133E+02
  | The smallest distance between any two atoms is         2.53178812 AA.
  | The first atom of this pair is atom number                     14 .
  | The second atom of this pair is atom number                    16 .
  | Wigner-Seitz cell of the first atom image           0     0     0 .
  | (The Wigner-Seitz cell of the second atom is 0 0 0  by definition.)

  Symmetry information by spglib:
  | Precision set to  0.1E-04
  | Number of Operations  : 2
  | Space group           : 6
  | International         : Pm
  | Schoenflies           : Cs^1
  Input structure read successfully.
  The structure contains       75 atoms,  and a total of       2750.000 electrons.

  Input geometry:
  | Unit cell:
  |       16.41708800        0.00000000        0.00000000
  |       -8.21125790       14.21583190        0.00000000
  |        0.00000000        0.00000000       99.89650741
  | Atomic structure:
  |       Atom                x [A]            y [A]            z [A]
  |    1: Species Mo            0.04992380        1.02962161        2.66500000
  |    2: Species Se            1.69153716        1.97730848        4.34345594
  |    3: Species Se            1.69153716        1.97730848        0.98654406
  |    4: Species Mo           -1.59233548        3.87279788        2.66500000
  |    5: Species Se            0.04928299        4.82046065        4.34344781
  |    6: Species Se            0.04928299        4.82046065        0.98655219
  |    7: Species Mo           -3.23455678        6.71596384        2.66500000
  |    8: Species Se           -1.59295583        7.66364270        4.34343959
  |    9: Species Se           -1.59295583        7.66364270        0.98656041
  |   10: Species Mo           -4.87683375        9.55910695        2.66500000
  |   11: Species Se           -3.23522213       10.50680388        4.34345859
  |   12: Species Se           -3.23522213       10.50680388        0.98654141
  |   13: Species Mo           -6.51907109       12.40230193        2.66500000
  |   14: Species Se           -4.87745870       13.34997235        4.34342941
  |   15: Species Se           -4.87745870       13.34997235        0.98657059
  |   16: Species Mo            3.33332503        1.02961547        2.66500000
  |   17: Species Se            4.97495971        1.97730930        4.34345087
  |   18: Species Se            4.97495971        1.97730930        0.98654913
  |   19: Species Mo            1.69111956        3.87280495        2.66500000
  |   20: Species Se            3.33270906        4.82046369        4.34345626
  |   21: Species Se            3.33270906        4.82046369        0.98654374
  |   22: Species Mo            0.04884078        6.71594495        2.66500000
  |   23: Species Se            1.69044878        7.66364101        4.34343839
  |   24: Species Se            1.69044878        7.66364101        0.98656161
  |   25: Species Mo           -1.59344813        9.55912581        2.66500000
  |   26: Species Se            0.04820620       10.50679749        4.34345913
  |   27: Species Se            0.04820620       10.50679749        0.98654087
  |   28: Species Mo           -3.23565076       12.40230299        2.66500000
  |   29: Species Se           -1.59404916       13.34997142        4.34344715
  |   30: Species Se           -1.59404916       13.34997142        0.98655285
  |   31: Species Mo            6.61675003        1.02961526        2.66500000
  |   32: Species Se            8.25837980        1.97730511        4.34345311
  |   33: Species Se            8.25837980        1.97730511        0.98654689
  |   34: Species Mo            4.97449628        3.87279356        2.66500000
  |   35: Species Se            6.61612496        4.82046795        4.34344494
  |   36: Species Se            6.61612496        4.82046795        0.98655506
  |   37: Species Mo            3.33224485        6.71597079        2.66500000
  |   38: Species Se            4.97387420        7.66363884        4.34343735
  |   39: Species Se            4.97387420        7.66363884        0.98656265
  |   40: Species Mo            1.69001186        9.55913729        2.66500000
  |   41: Species Se            3.33162955       10.50680495        4.34345234
  |   42: Species Se            3.33162955       10.50680495        0.98654766
  |   43: Species Mo            0.04775598       12.40228636        2.66500000
  |   44: Species Se            1.68937539       13.34996856        4.34345006
  |   45: Species Se            1.68937539       13.34996856        0.98654994
  |   46: Species Mo            9.90015792        1.02964392        2.66500000
  |   47: Species Se           11.54178843        1.97729591        4.34345253
  |   48: Species Se           11.54178843        1.97729591        0.98654747
  |   49: Species Mo            8.25792511        3.87279889        2.66500000
  |   50: Species Se            9.89954151        4.82046711        4.34345797
  |   51: Species Se            9.89954151        4.82046711        0.98654203
  |   52: Species Mo            6.61567328        6.71596191        2.66500000
  |   53: Species Se            8.25729244        7.66363481        4.34344626
  |   54: Species Se            8.25729244        7.66363481        0.98655374
  |   55: Species Mo            4.97341861        9.55911696        2.66500000
  |   56: Species Se            6.61503273       10.50679864        4.34346421
  |   57: Species Se            6.61503273       10.50679864        0.98653579
  |   58: Species Mo            3.33116172       12.40228348        2.66500000
  |   59: Species Se            4.97278152       13.34996486        4.34344308
  |   60: Species Se            4.97278152       13.34996486        0.98655692
  |   61: Species Mo           13.18360294        1.02963574        2.66500000
  |   62: Species Se           14.82522662        1.97730244        4.34343280
  |   63: Species Se           14.82522662        1.97730244        0.98656720
  |   64: Species Mo           11.54134175        3.87278790        2.66500000
  |   65: Species Se           13.18295093        4.82047916        4.34345956
  |   66: Species Se           13.18295093        4.82047916        0.98654044
  |   67: Species Mo            9.89907364        6.71595925        2.66500000
  |   68: Species Se           11.54070727        7.66364326        4.34344952
  |   69: Species Se           11.54070727        7.66364326        0.98655048
  |   70: Species Mo            8.25683673        9.55912042        2.66500000
  |   71: Species Se            9.89846299       10.50679996        4.34343661
  |   72: Species Se            9.89846299       10.50679996        0.98656339
  |   73: Species Mo            6.61458080       12.40230694        2.66500000
  |   74: Species Se            8.25620121       13.34997090        4.34345930
  |   75: Species Se            8.25620121       13.34997090        0.98654070

  Lattice parameters for 3D lattice (in Angstroms) :    16.417088   16.416901   99.896507
  Angle(s) between unit vectors (in degrees)       :    90.000000   90.000000  120.011315


  Quantities derived from the lattice vectors:
  | Reciprocal lattice vector 1:  0.382722  0.221066  0.000000
  | Reciprocal lattice vector 2:  0.000000  0.441985  0.000000
  | Reciprocal lattice vector 3:  0.000000  0.000000  0.062897
  | Unit cell volume                               :   0.233141E+05  A^3

  Fractional coordinates:
                         L1                L2                L3
       atom_frac         0.03926684        0.07242781        0.02667761  Mo
       atom_frac         0.17260415        0.13909200        0.04347956  Se
       atom_frac         0.17260415        0.13909200        0.00987566  Se
       atom_frac         0.03926672        0.27242851        0.02667761  Mo
       atom_frac         0.17260349        0.33909100        0.04347948  Se
       atom_frac         0.17260349        0.33909100        0.00987574  Se
       atom_frac         0.03926855        0.47242848        0.02667761  Mo
       atom_frac         0.17260482        0.53909210        0.04347939  Se
       atom_frac         0.17260482        0.53909210        0.00987582  Se
       atom_frac         0.03926619        0.67242684        0.02667761  Mo
       atom_frac         0.17260374        0.73909174        0.04347958  Se
       atom_frac         0.17260374        0.73909174        0.00987563  Se
       atom_frac         0.03926806        0.87242885        0.02667761  Mo
       atom_frac         0.17260472        0.93909188        0.04347929  Se
       atom_frac         0.17260472        0.93909188        0.00987593  Se
       atom_frac         0.23926563        0.07242738        0.02667761  Mo
       atom_frac         0.37260448        0.13909206        0.04347951  Se
       atom_frac         0.37260448        0.13909206        0.00987571  Se
       atom_frac         0.23926925        0.27242901        0.02667761  Mo
       atom_frac         0.37260411        0.33909121        0.04347956  Se
       atom_frac         0.37260411        0.33909121        0.00987566  Se
       atom_frac         0.23926667        0.47242715        0.02667761  Mo
       atom_frac         0.37260397        0.53909198        0.04347938  Se
       atom_frac         0.37260397        0.53909198        0.00987584  Se
       atom_frac         0.23926490        0.67242817        0.02667761  Mo
       atom_frac         0.37260417        0.73909129        0.04347959  Se
       atom_frac         0.37260417        0.73909129        0.00987563  Se
       atom_frac         0.23926827        0.87242893        0.02667761  Mo
       atom_frac         0.37260420        0.93909182        0.04347947  Se
       atom_frac         0.37260420        0.93909182        0.00987575  Se
       atom_frac         0.43926608        0.07242737        0.02667761  Mo
       atom_frac         0.57260448        0.13909176        0.04347953  Se
       atom_frac         0.57260448        0.13909176        0.00987569  Se
       atom_frac         0.43926636        0.27242820        0.02667761  Mo
       atom_frac         0.57260416        0.33909151        0.04347945  Se
       atom_frac         0.57260416        0.33909151        0.00987577  Se
       atom_frac         0.43926675        0.47242897        0.02667761  Mo
       atom_frac         0.57260437        0.53909183        0.04347937  Se
       atom_frac         0.57260437        0.53909183        0.00987585  Se
       atom_frac         0.43926789        0.67242898        0.02667761  Mo
       atom_frac         0.57260478        0.73909181        0.04347952  Se
       atom_frac         0.57260478        0.73909181        0.00987570  Se
       atom_frac         0.43926702        0.87242776        0.02667761  Mo
       atom_frac         0.57260452        0.93909162        0.04347950  Se
       atom_frac         0.57260452        0.93909162        0.00987572  Se
       atom_frac         0.63926649        0.07242938        0.02667761  Mo
       atom_frac         0.77260361        0.13909112        0.04347952  Se
       atom_frac         0.77260361        0.13909112        0.00987570  Se
       atom_frac         0.63926723        0.27242858        0.02667761  Mo
       atom_frac         0.77260406        0.33909145        0.04347958  Se
       atom_frac         0.77260406        0.33909145        0.00987564  Se
       atom_frac         0.63926710        0.47242834        0.02667761  Mo
       atom_frac         0.77260426        0.53909155        0.04347946  Se
       atom_frac         0.77260426        0.53909155        0.00987576  Se
       atom_frac         0.63926651        0.67242755        0.02667761  Mo
       atom_frac         0.77260368        0.73909137        0.04347964  Se
       atom_frac         0.77260368        0.73909137        0.00987558  Se
       atom_frac         0.63926620        0.87242756        0.02667761  Mo
       atom_frac         0.77260369        0.93909136        0.04347943  Se
       atom_frac         0.77260369        0.93909136        0.00987579  Se
       atom_frac         0.83926787        0.07242881        0.02667761  Mo
       atom_frac         0.97260509        0.13909157        0.04347933  Se
       atom_frac         0.97260509        0.13909157        0.00987589  Se
       atom_frac         0.83926679        0.27242781        0.02667761  Mo
       atom_frac         0.97260399        0.33909230        0.04347959  Se
       atom_frac         0.97260399        0.33909230        0.00987562  Se
       atom_frac         0.83926596        0.47242816        0.02667761  Mo
       atom_frac         0.97260439        0.53909214        0.04347949  Se
       atom_frac         0.97260439        0.53909214        0.00987573  Se
       atom_frac         0.83926667        0.67242779        0.02667761  Mo
       atom_frac         0.97260449        0.73909146        0.04347936  Se
       atom_frac         0.97260449        0.73909146        0.00987585  Se
       atom_frac         0.83926711        0.87242921        0.02667761  Mo
       atom_frac         0.97260403        0.93909178        0.04347959  Se
       atom_frac         0.97260403        0.93909178        0.00987563  Se

  Initial moments and charges:
  |  Atom   Moment         Charge        Species
  |     1   0.100000E+01   0.000000E+00   Mo
  |     2   0.100000E+01   0.000000E+00   Se
  |     3   0.100000E+01   0.000000E+00   Se
  |     4   0.100000E+01   0.000000E+00   Mo
  |     5   0.100000E+01   0.000000E+00   Se
  |     6   0.100000E+01   0.000000E+00   Se
  |     7   0.100000E+01   0.000000E+00   Mo
  |     8   0.100000E+01   0.000000E+00   Se
  |     9   0.100000E+01   0.000000E+00   Se
  |    10   0.100000E+01   0.000000E+00   Mo
  |    11   0.100000E+01   0.000000E+00   Se
  |    12   0.100000E+01   0.000000E+00   Se
  |    13   0.100000E+01   0.000000E+00   Mo
  |    14   0.100000E+01   0.000000E+00   Se
  |    15   0.100000E+01   0.000000E+00   Se
  |    16   0.100000E+01   0.000000E+00   Mo
  |    17   0.100000E+01   0.000000E+00   Se
  |    18   0.100000E+01   0.000000E+00   Se
  |    19   0.100000E+01   0.000000E+00   Mo
  |    20   0.100000E+01   0.000000E+00   Se
  |    21   0.100000E+01   0.000000E+00   Se
  |    22   0.100000E+01   0.000000E+00   Mo
  |    23   0.100000E+01   0.000000E+00   Se
  |    24   0.100000E+01   0.000000E+00   Se
  |    25   0.100000E+01   0.000000E+00   Mo
  |    26   0.100000E+01   0.000000E+00   Se
  |    27   0.100000E+01   0.000000E+00   Se
  |    28   0.100000E+01   0.000000E+00   Mo
  |    29   0.100000E+01   0.000000E+00   Se
  |    30   0.100000E+01   0.000000E+00   Se
  |    31   0.100000E+01   0.000000E+00   Mo
  |    32   0.100000E+01   0.000000E+00   Se
  |    33   0.100000E+01   0.000000E+00   Se
  |    34   0.100000E+01   0.000000E+00   Mo
  |    35   0.100000E+01   0.000000E+00   Se
  |    36   0.100000E+01   0.000000E+00   Se
  |    37   0.100000E+01   0.000000E+00   Mo
  |    38   0.100000E+01   0.000000E+00   Se
  |    39   0.100000E+01   0.000000E+00   Se
  |    40   0.100000E+01   0.000000E+00   Mo
  |    41   0.100000E+01   0.000000E+00   Se
  |    42   0.100000E+01   0.000000E+00   Se
  |    43   0.100000E+01   0.000000E+00   Mo
  |    44   0.100000E+01   0.000000E+00   Se
  |    45   0.100000E+01   0.000000E+00   Se
  |    46   0.100000E+01   0.000000E+00   Mo
  |    47   0.100000E+01   0.000000E+00   Se
  |    48   0.100000E+01   0.000000E+00   Se
  |    49   0.100000E+01   0.000000E+00   Mo
  |    50   0.100000E+01   0.000000E+00   Se
  |    51   0.100000E+01   0.000000E+00   Se
  |    52   0.100000E+01   0.000000E+00   Mo
  |    53   0.100000E+01   0.000000E+00   Se
  |    54   0.100000E+01   0.000000E+00   Se
  |    55   0.100000E+01   0.000000E+00   Mo
  |    56   0.100000E+01   0.000000E+00   Se
  |    57   0.100000E+01   0.000000E+00   Se
  |    58   0.100000E+01   0.000000E+00   Mo
  |    59   0.100000E+01   0.000000E+00   Se
  |    60   0.100000E+01   0.000000E+00   Se
  |    61   0.100000E+01   0.000000E+00   Mo
  |    62   0.100000E+01   0.000000E+00   Se
  |    63   0.100000E+01   0.000000E+00   Se
  |    64   0.100000E+01   0.000000E+00   Mo
  |    65   0.100000E+01   0.000000E+00   Se
  |    66   0.100000E+01   0.000000E+00   Se
  |    67   0.100000E+01   0.000000E+00   Mo
  |    68   0.100000E+01   0.000000E+00   Se
  |    69   0.100000E+01   0.000000E+00   Se
  |    70   0.100000E+01   0.000000E+00   Mo
  |    71   0.100000E+01   0.000000E+00   Se
  |    72   0.100000E+01   0.000000E+00   Se
  |    73   0.100000E+01   0.000000E+00   Mo
  |    74   0.100000E+01   0.000000E+00   Se
  |    75   0.100000E+01   0.000000E+00   Se

 
  Finished reading input file 'control.in'.
 

------------------------------------------------------------
          Reading geometry description geometry.in.
------------------------------------------------------------
 
  Consistency checks for stacksize environment parameter are next.
 
  | Maximum stacksize for task 0: unlimited
  | Maximum stacksize for task 1: unlimited
  | Maximum stacksize for task 2: unlimited
  | Maximum stacksize for task 3: unlimited
  | Maximum stacksize for task 4: unlimited
  | Maximum stacksize for task 5: unlimited
  | Maximum stacksize for task 6: unlimited
  | Maximum stacksize for task 7: unlimited
  | Maximum stacksize for task 8: unlimited
  | Maximum stacksize for task 9: unlimited
  | Maximum stacksize for task 10: unlimited
  | Maximum stacksize for task 11: unlimited
  | Maximum stacksize for task 12: unlimited
  | Maximum stacksize for task 13: unlimited
  | Maximum stacksize for task 14: unlimited
  | Maximum stacksize for task 15: unlimited
  | Maximum stacksize for task 16: unlimited
  | Maximum stacksize for task 17: unlimited
  | Maximum stacksize for task 18: unlimited
  | Maximum stacksize for task 19: unlimited
  | Maximum stacksize for task 20: unlimited
  | Maximum stacksize for task 21: unlimited
  | Maximum stacksize for task 22: unlimited
  | Maximum stacksize for task 23: unlimited
  | Maximum stacksize for task 24: unlimited
  | Maximum stacksize for task 25: unlimited
  | Maximum stacksize for task 26: unlimited
  | Maximum stacksize for task 27: unlimited
  | Maximum stacksize for task 28: unlimited
  | Maximum stacksize for task 29: unlimited
  | Maximum stacksize for task 30: unlimited
  | Maximum stacksize for task 31: unlimited
  | Maximum stacksize for task 32: unlimited
  | Maximum stacksize for task 33: unlimited
  | Maximum stacksize for task 34: unlimited
  | Maximum stacksize for task 35: unlimited
  | Maximum stacksize for task 36: unlimited
  | Maximum stacksize for task 37: unlimited
  | Maximum stacksize for task 38: unlimited
  | Maximum stacksize for task 39: unlimited
  | Maximum stacksize for task 40: unlimited
  | Maximum stacksize for task 41: unlimited
  | Maximum stacksize for task 42: unlimited
  | Maximum stacksize for task 43: unlimited
  | Maximum stacksize for task 44: unlimited
  | Maximum stacksize for task 45: unlimited
  | Maximum stacksize for task 46: unlimited
  | Maximum stacksize for task 47: unlimited
  | Maximum stacksize for task 48: unlimited
  | Maximum stacksize for task 49: unlimited
  | Maximum stacksize for task 50: unlimited
  | Maximum stacksize for task 51: unlimited
  | Maximum stacksize for task 52: unlimited
  | Maximum stacksize for task 53: unlimited
  | Maximum stacksize for task 54: unlimited
  | Maximum stacksize for task 55: unlimited
  | Maximum stacksize for task 56: unlimited
  | Maximum stacksize for task 57: unlimited
  | Maximum stacksize for task 58: unlimited
  | Maximum stacksize for task 59: unlimited
  | Maximum stacksize for task 60: unlimited
  | Maximum stacksize for task 61: unlimited
  | Maximum stacksize for task 62: unlimited
  | Maximum stacksize for task 63: unlimited
  | Maximum stacksize for task 64: unlimited
  | Maximum stacksize for task 65: unlimited
  | Maximum stacksize for task 66: unlimited
  | Maximum stacksize for task 67: unlimited
  | Maximum stacksize for task 68: unlimited
  | Maximum stacksize for task 69: unlimited
  | Maximum stacksize for task 70: unlimited
  | Maximum stacksize for task 71: unlimited
  | Maximum stacksize for task 72: unlimited
  | Maximum stacksize for task 73: unlimited
  | Maximum stacksize for task 74: unlimited
  | Maximum stacksize for task 75: unlimited
  | Maximum stacksize for task 76: unlimited
  | Maximum stacksize for task 77: unlimited
  | Maximum stacksize for task 78: unlimited
  | Maximum stacksize for task 79: unlimited
  | Maximum stacksize for task 80: unlimited
  | Maximum stacksize for task 81: unlimited
  | Maximum stacksize for task 82: unlimited
  | Maximum stacksize for task 83: unlimited
  | Maximum stacksize for task 84: unlimited
  | Maximum stacksize for task 85: unlimited
  | Maximum stacksize for task 86: unlimited
  | Maximum stacksize for task 87: unlimited
  | Maximum stacksize for task 88: unlimited
  | Maximum stacksize for task 89: unlimited
  | Maximum stacksize for task 90: unlimited
  | Maximum stacksize for task 91: unlimited
  | Maximum stacksize for task 92: unlimited
  | Maximum stacksize for task 93: unlimited
  | Maximum stacksize for task 94: unlimited
  | Maximum stacksize for task 95: unlimited
  | Maximum stacksize for task 96: unlimited
  | Maximum stacksize for task 97: unlimited
  | Maximum stacksize for task 98: unlimited
  | Maximum stacksize for task 99: unlimited
  | Maximum stacksize for task 100: unlimited
  | Maximum stacksize for task 101: unlimited
  | Maximum stacksize for task 102: unlimited
  | Maximum stacksize for task 103: unlimited
  | Maximum stacksize for task 104: unlimited
  | Maximum stacksize for task 105: unlimited
  | Maximum stacksize for task 106: unlimited
  | Maximum stacksize for task 107: unlimited
  | Maximum stacksize for task 108: unlimited
  | Maximum stacksize for task 109: unlimited
  | Maximum stacksize for task 110: unlimited
  | Maximum stacksize for task 111: unlimited
  | Maximum stacksize for task 112: unlimited
  | Maximum stacksize for task 113: unlimited
  | Maximum stacksize for task 114: unlimited
  | Maximum stacksize for task 115: unlimited
  | Maximum stacksize for task 116: unlimited
  | Maximum stacksize for task 117: unlimited
  | Maximum stacksize for task 118: unlimited
  | Maximum stacksize for task 119: unlimited
  | Maximum stacksize for task 120: unlimited
  | Maximum stacksize for task 121: unlimited
  | Maximum stacksize for task 122: unlimited
  | Maximum stacksize for task 123: unlimited
  | Maximum stacksize for task 124: unlimited
  | Maximum stacksize for task 125: unlimited
  | Maximum stacksize for task 126: unlimited
  | Maximum stacksize for task 127: unlimited
  | Maximum stacksize for task 128: unlimited
  | Maximum stacksize for task 129: unlimited
  | Maximum stacksize for task 130: unlimited
  | Maximum stacksize for task 131: unlimited
  | Maximum stacksize for task 132: unlimited
  | Maximum stacksize for task 133: unlimited
  | Maximum stacksize for task 134: unlimited
  | Maximum stacksize for task 135: unlimited
  | Maximum stacksize for task 136: unlimited
  | Maximum stacksize for task 137: unlimited
  | Maximum stacksize for task 138: unlimited
  | Maximum stacksize for task 139: unlimited
  | Maximum stacksize for task 140: unlimited
  | Maximum stacksize for task 141: unlimited
  | Maximum stacksize for task 142: unlimited
  | Maximum stacksize for task 143: unlimited
  | Maximum stacksize for task 144: unlimited
  | Maximum stacksize for task 145: unlimited
  | Maximum stacksize for task 146: unlimited
  | Maximum stacksize for task 147: unlimited
  | Maximum stacksize for task 148: unlimited
  | Maximum stacksize for task 149: unlimited
  | Maximum stacksize for task 150: unlimited
  | Maximum stacksize for task 151: unlimited
  | Maximum stacksize for task 152: unlimited
  | Maximum stacksize for task 153: unlimited
  | Maximum stacksize for task 154: unlimited
  | Maximum stacksize for task 155: unlimited
  | Maximum stacksize for task 156: unlimited
  | Maximum stacksize for task 157: unlimited
  | Maximum stacksize for task 158: unlimited
  | Maximum stacksize for task 159: unlimited
  | Maximum stacksize for task 160: unlimited
  | Maximum stacksize for task 161: unlimited
  | Maximum stacksize for task 162: unlimited
  | Maximum stacksize for task 163: unlimited
  | Maximum stacksize for task 164: unlimited
  | Maximum stacksize for task 165: unlimited
  | Maximum stacksize for task 166: unlimited
  | Maximum stacksize for task 167: unlimited
  | Maximum stacksize for task 168: unlimited
  | Maximum stacksize for task 169: unlimited
  | Maximum stacksize for task 170: unlimited
  | Maximum stacksize for task 171: unlimited
  | Maximum stacksize for task 172: unlimited
  | Maximum stacksize for task 173: unlimited
  | Maximum stacksize for task 174: unlimited
  | Maximum stacksize for task 175: unlimited
  | Maximum stacksize for task 176: unlimited
  | Maximum stacksize for task 177: unlimited
  | Maximum stacksize for task 178: unlimited
  | Maximum stacksize for task 179: unlimited
  | Maximum stacksize for task 180: unlimited
  | Maximum stacksize for task 181: unlimited
  | Maximum stacksize for task 182: unlimited
  | Maximum stacksize for task 183: unlimited
  | Maximum stacksize for task 184: unlimited
  | Maximum stacksize for task 185: unlimited
  | Maximum stacksize for task 186: unlimited
  | Maximum stacksize for task 187: unlimited
  | Maximum stacksize for task 188: unlimited
  | Maximum stacksize for task 189: unlimited
  | Maximum stacksize for task 190: unlimited
  | Maximum stacksize for task 191: unlimited
  | Maximum stacksize for task 192: unlimited
  | Maximum stacksize for task 193: unlimited
  | Maximum stacksize for task 194: unlimited
  | Maximum stacksize for task 195: unlimited
  | Maximum stacksize for task 196: unlimited
  | Maximum stacksize for task 197: unlimited
  | Maximum stacksize for task 198: unlimited
  | Maximum stacksize for task 199: unlimited
  | Maximum stacksize for task 200: unlimited
  | Maximum stacksize for task 201: unlimited
  | Maximum stacksize for task 202: unlimited
  | Maximum stacksize for task 203: unlimited
  | Maximum stacksize for task 204: unlimited
  | Maximum stacksize for task 205: unlimited
  | Maximum stacksize for task 206: unlimited
  | Maximum stacksize for task 207: unlimited
  | Maximum stacksize for task 208: unlimited
  | Maximum stacksize for task 209: unlimited
  | Maximum stacksize for task 210: unlimited
  | Maximum stacksize for task 211: unlimited
  | Maximum stacksize for task 212: unlimited
  | Maximum stacksize for task 213: unlimited
  | Maximum stacksize for task 214: unlimited
  | Maximum stacksize for task 215: unlimited
  | Current stacksize for task 0: unlimited
  | Current stacksize for task 1: unlimited
  | Current stacksize for task 2: unlimited
  | Current stacksize for task 3: unlimited
  | Current stacksize for task 4: unlimited
  | Current stacksize for task 5: unlimited
  | Current stacksize for task 6: unlimited
  | Current stacksize for task 7: unlimited
  | Current stacksize for task 8: unlimited
  | Current stacksize for task 9: unlimited
  | Current stacksize for task 10: unlimited
  | Current stacksize for task 11: unlimited
  | Current stacksize for task 12: unlimited
  | Current stacksize for task 13: unlimited
  | Current stacksize for task 14: unlimited
  | Current stacksize for task 15: unlimited
  | Current stacksize for task 16: unlimited
  | Current stacksize for task 17: unlimited
  | Current stacksize for task 18: unlimited
  | Current stacksize for task 19: unlimited
  | Current stacksize for task 20: unlimited
  | Current stacksize for task 21: unlimited
  | Current stacksize for task 22: unlimited
  | Current stacksize for task 23: unlimited
  | Current stacksize for task 24: unlimited
  | Current stacksize for task 25: unlimited
  | Current stacksize for task 26: unlimited
  | Current stacksize for task 27: unlimited
  | Current stacksize for task 28: unlimited
  | Current stacksize for task 29: unlimited
  | Current stacksize for task 30: unlimited
  | Current stacksize for task 31: unlimited
  | Current stacksize for task 32: unlimited
  | Current stacksize for task 33: unlimited
  | Current stacksize for task 34: unlimited
  | Current stacksize for task 35: unlimited
  | Current stacksize for task 36: unlimited
  | Current stacksize for task 37: unlimited
  | Current stacksize for task 38: unlimited
  | Current stacksize for task 39: unlimited
  | Current stacksize for task 40: unlimited
  | Current stacksize for task 41: unlimited
  | Current stacksize for task 42: unlimited
  | Current stacksize for task 43: unlimited
  | Current stacksize for task 44: unlimited
  | Current stacksize for task 45: unlimited
  | Current stacksize for task 46: unlimited
  | Current stacksize for task 47: unlimited
  | Current stacksize for task 48: unlimited
  | Current stacksize for task 49: unlimited
  | Current stacksize for task 50: unlimited
  | Current stacksize for task 51: unlimited
  | Current stacksize for task 52: unlimited
  | Current stacksize for task 53: unlimited
  | Current stacksize for task 54: unlimited
  | Current stacksize for task 55: unlimited
  | Current stacksize for task 56: unlimited
  | Current stacksize for task 57: unlimited
  | Current stacksize for task 58: unlimited
  | Current stacksize for task 59: unlimited
  | Current stacksize for task 60: unlimited
  | Current stacksize for task 61: unlimited
  | Current stacksize for task 62: unlimited
  | Current stacksize for task 63: unlimited
  | Current stacksize for task 64: unlimited
  | Current stacksize for task 65: unlimited
  | Current stacksize for task 66: unlimited
  | Current stacksize for task 67: unlimited
  | Current stacksize for task 68: unlimited
  | Current stacksize for task 69: unlimited
  | Current stacksize for task 70: unlimited
  | Current stacksize for task 71: unlimited
  | Current stacksize for task 72: unlimited
  | Current stacksize for task 73: unlimited
  | Current stacksize for task 74: unlimited
  | Current stacksize for task 75: unlimited
  | Current stacksize for task 76: unlimited
  | Current stacksize for task 77: unlimited
  | Current stacksize for task 78: unlimited
  | Current stacksize for task 79: unlimited
  | Current stacksize for task 80: unlimited
  | Current stacksize for task 81: unlimited
  | Current stacksize for task 82: unlimited
  | Current stacksize for task 83: unlimited
  | Current stacksize for task 84: unlimited
  | Current stacksize for task 85: unlimited
  | Current stacksize for task 86: unlimited
  | Current stacksize for task 87: unlimited
  | Current stacksize for task 88: unlimited
  | Current stacksize for task 89: unlimited
  | Current stacksize for task 90: unlimited
  | Current stacksize for task 91: unlimited
  | Current stacksize for task 92: unlimited
  | Current stacksize for task 93: unlimited
  | Current stacksize for task 94: unlimited
  | Current stacksize for task 95: unlimited
  | Current stacksize for task 96: unlimited
  | Current stacksize for task 97: unlimited
  | Current stacksize for task 98: unlimited
  | Current stacksize for task 99: unlimited
  | Current stacksize for task 100: unlimited
  | Current stacksize for task 101: unlimited
  | Current stacksize for task 102: unlimited
  | Current stacksize for task 103: unlimited
  | Current stacksize for task 104: unlimited
  | Current stacksize for task 105: unlimited
  | Current stacksize for task 106: unlimited
  | Current stacksize for task 107: unlimited
  | Current stacksize for task 108: unlimited
  | Current stacksize for task 109: unlimited
  | Current stacksize for task 110: unlimited
  | Current stacksize for task 111: unlimited
  | Current stacksize for task 112: unlimited
  | Current stacksize for task 113: unlimited
  | Current stacksize for task 114: unlimited
  | Current stacksize for task 115: unlimited
  | Current stacksize for task 116: unlimited
  | Current stacksize for task 117: unlimited
  | Current stacksize for task 118: unlimited
  | Current stacksize for task 119: unlimited
  | Current stacksize for task 120: unlimited
  | Current stacksize for task 121: unlimited
  | Current stacksize for task 122: unlimited
  | Current stacksize for task 123: unlimited
  | Current stacksize for task 124: unlimited
  | Current stacksize for task 125: unlimited
  | Current stacksize for task 126: unlimited
  | Current stacksize for task 127: unlimited
  | Current stacksize for task 128: unlimited
  | Current stacksize for task 129: unlimited
  | Current stacksize for task 130: unlimited
  | Current stacksize for task 131: unlimited
  | Current stacksize for task 132: unlimited
  | Current stacksize for task 133: unlimited
  | Current stacksize for task 134: unlimited
  | Current stacksize for task 135: unlimited
  | Current stacksize for task 136: unlimited
  | Current stacksize for task 137: unlimited
  | Current stacksize for task 138: unlimited
  | Current stacksize for task 139: unlimited
  | Current stacksize for task 140: unlimited
  | Current stacksize for task 141: unlimited
  | Current stacksize for task 142: unlimited
  | Current stacksize for task 143: unlimited
  | Current stacksize for task 144: unlimited
  | Current stacksize for task 145: unlimited
  | Current stacksize for task 146: unlimited
  | Current stacksize for task 147: unlimited
  | Current stacksize for task 148: unlimited
  | Current stacksize for task 149: unlimited
  | Current stacksize for task 150: unlimited
  | Current stacksize for task 151: unlimited
  | Current stacksize for task 152: unlimited
  | Current stacksize for task 153: unlimited
  | Current stacksize for task 154: unlimited
  | Current stacksize for task 155: unlimited
  | Current stacksize for task 156: unlimited
  | Current stacksize for task 157: unlimited
  | Current stacksize for task 158: unlimited
  | Current stacksize for task 159: unlimited
  | Current stacksize for task 160: unlimited
  | Current stacksize for task 161: unlimited
  | Current stacksize for task 162: unlimited
  | Current stacksize for task 163: unlimited
  | Current stacksize for task 164: unlimited
  | Current stacksize for task 165: unlimited
  | Current stacksize for task 166: unlimited
  | Current stacksize for task 167: unlimited
  | Current stacksize for task 168: unlimited
  | Current stacksize for task 169: unlimited
  | Current stacksize for task 170: unlimited
  | Current stacksize for task 171: unlimited
  | Current stacksize for task 172: unlimited
  | Current stacksize for task 173: unlimited
  | Current stacksize for task 174: unlimited
  | Current stacksize for task 175: unlimited
  | Current stacksize for task 176: unlimited
  | Current stacksize for task 177: unlimited
  | Current stacksize for task 178: unlimited
  | Current stacksize for task 179: unlimited
  | Current stacksize for task 180: unlimited
  | Current stacksize for task 181: unlimited
  | Current stacksize for task 182: unlimited
  | Current stacksize for task 183: unlimited
  | Current stacksize for task 184: unlimited
  | Current stacksize for task 185: unlimited
  | Current stacksize for task 186: unlimited
  | Current stacksize for task 187: unlimited
  | Current stacksize for task 188: unlimited
  | Current stacksize for task 189: unlimited
  | Current stacksize for task 190: unlimited
  | Current stacksize for task 191: unlimited
  | Current stacksize for task 192: unlimited
  | Current stacksize for task 193: unlimited
  | Current stacksize for task 194: unlimited
  | Current stacksize for task 195: unlimited
  | Current stacksize for task 196: unlimited
  | Current stacksize for task 197: unlimited
  | Current stacksize for task 198: unlimited
  | Current stacksize for task 199: unlimited
  | Current stacksize for task 200: unlimited
  | Current stacksize for task 201: unlimited
  | Current stacksize for task 202: unlimited
  | Current stacksize for task 203: unlimited
  | Current stacksize for task 204: unlimited
  | Current stacksize for task 205: unlimited
  | Current stacksize for task 206: unlimited
  | Current stacksize for task 207: unlimited
  | Current stacksize for task 208: unlimited
  | Current stacksize for task 209: unlimited
  | Current stacksize for task 210: unlimited
  | Current stacksize for task 211: unlimited
  | Current stacksize for task 212: unlimited
  | Current stacksize for task 213: unlimited
  | Current stacksize for task 214: unlimited
  | Current stacksize for task 215: unlimited
 
  Consistency checks for the contents of control.in are next.
 
  MPI_IN_PLACE appears to work with this MPI implementation.
  | Keeping use_mpi_in_place .true. (see manual).
  Target number of points in a grid batch is not set. Defaulting to  100
  Method for grid partitioning is not set. Defaulting to parallel hash+maxmin partitioning.
  Batch size limit is not set. Defaulting to    200
  By default, will store active basis functions for each batch.
  If in need of memory, prune_basis_once .false. can be used to disable this option.
  communication_type for Hartree potential was not specified.
  Defaulting to calc_hartree .
  Defaulting to Pulay charge density mixer.
  Pulay mixer: Number of relevant iterations not set.
  Defaulting to    8 iterations.
  Pulay mixer: Number of initial linear mixing iterations not set.
  Defaulting to    0 iterations.
  Work space size for distributed Hartree potential not set.
  Defaulting to   0.200000E+03 MB.
  Mixing parameter for charge density mixing has not been set.
  Using default: charge_mix_param =     0.0500.
  The mixing parameter will be adjusted in iteration number     2 of the first full s.c.f. cycle only.
  Mixing parameter for spin density mixing has not been set.
  Using charge_mix_param as default:     0.0500.
  Algorithm-dependent basis array size parameters:
  | n_max_pulay                         :        8
  Maximum number of self-consistency iterations not provided.
  Presetting  1000 iterations.
  Presetting      1001 iterations before the initial mixing cycle
  is restarted anyway using the sc_init_iter criterion / keyword.
  Presetting a factor      1.000 between actual scf density residual
  and density convergence criterion sc_accuracy_rho below which sc_init_iter
  takes no effect.
 * No s.c.f. convergence criteria (sc_accuracy_*) were provided in control.in.
 * The run will proceed with a reasonable default guess, but please check whether.
[...]
   3267       0.00000                       7.126290           7.122209             0.000013
   3268       0.00000                       7.126294           7.122214             0.000005
   3269       0.00000                       7.126316           7.142664             0.020450
   3270       0.00000                       7.126320           7.142665             0.000001
   3271       0.00000                       7.126437           7.143646             0.000982
   3272       0.00000                       7.126440           7.143647             0.000001
   3273       0.00000                       7.126453           7.143856             0.000209
   3274       0.00000                       7.126456           7.143857             0.000001
   3275       0.00000                       7.144321           7.151154             0.007297
   3276       0.00000                       7.144323           7.151156             0.000002
   3277       0.00000                       7.150854           7.169676             0.018519
   3278       0.00000                       7.150855           7.169677             0.000001
   3279       0.00000                       7.150861           7.170615             0.000939
   3280       0.00000                       7.150862           7.170616             0.000001
   3281       0.00000                       7.151638           7.170642             0.000025
   3282       0.00000                       7.151639           7.170643             0.000001
   3283       0.00000                       7.151647           7.177045             0.006403
   3284       0.00000                       7.151648           7.177047             0.000002
   3285       0.00000                       7.151826           7.178121             0.001074
   3286       0.00000                       7.151827           7.178123             0.000002
   3287       0.00000                       7.151830           7.178333             0.000210
   3288       0.00000                       7.151831           7.178334             0.000002
   3289       0.00000                       7.186633           7.189748             0.011414
   3290       0.00000                       7.186635           7.189750             0.000002
   3291       0.00000                       7.186637           7.191016             0.001266
   3292       0.00000                       7.186639           7.191018             0.000002
   3293       0.00000                       7.187921           7.191393             0.000374
   3294       0.00000                       7.187923           7.191395             0.000002
   3295       0.00000                       7.187927           7.196429             0.005035
   3296       0.00000                       7.187929           7.196432             0.000002
   3297       0.00000                       7.188301           7.197702             0.001271
   3298       0.00000                       7.188303           7.197704             0.000002
   3299       0.00000                       7.188304           7.198074             0.000369
   3300       0.00000                       7.188306           7.198076             0.000002
   3301       0.00000                       7.439323           7.443303             0.245227
   3302       0.00000                       7.439327           7.443306             0.000004
   3303       0.00000                       7.439349           7.443333             0.000027
   3304       0.00000                       7.439353           7.443337             0.000004
   3305       0.00000                       7.440455           7.444389             0.001052
   3306       0.00000                       7.440458           7.444392             0.000004
   3307       0.00000                       7.440487           7.444420             0.000028
   3308       0.00000                       7.440490           7.444423             0.000004
   3309       0.00000                       7.440587           7.444502             0.000079
   3310       0.00000                       7.440590           7.444506             0.000004
   3311       0.00000                       7.440599           7.444543             0.000037
   3312       0.00000                       7.440603           7.444546             0.000004
   3313       0.00000                       7.673836           7.690004             0.245458
   3314       0.00000                       7.673838           7.690006             0.000001
   3315       0.00000                       7.673867           7.690055             0.000050
   3316       0.00000                       7.673868           7.690057             0.000001
   3317       0.00000                       7.674054           7.690215             0.000158
   3318       0.00000                       7.674056           7.690217             0.000001
   3319       0.00000                       7.674065           7.690255             0.000039
   3320       0.00000                       7.674066           7.690257             0.000001
   3321       0.00000                       7.676359           7.692434             0.002178
   3322       0.00000                       7.676361           7.692436             0.000001
   3323       0.00000                       7.676388           7.692548             0.000113
   3324       0.00000                       7.676389           7.692550             0.000001
   3325       0.00000                       7.850074           7.834469             0.141919
   3326       0.00000                       7.850079           7.834474             0.000005
   3327       0.00000                       7.850096           7.835066             0.000593
   3328       0.00000                       7.850101           7.835071             0.000005
   3329       0.00000                       7.850689           7.835240             0.000169
   3330       0.00000                       7.850694           7.835245             0.000005
   3331       0.00000                       7.850705           7.875473             0.040227
   3332       0.00000                       7.850710           7.875478             0.000005
   3333       0.00000                       7.850856           7.876120             0.000642
   3334       0.00000                       7.850862           7.876125             0.000005
   3335       0.00000                       7.850881           7.876279             0.000154
   3336       0.00000                       7.850887           7.876284             0.000005
   3337       0.00000                       7.906748           7.917804             0.041520
   3338       0.00000                       7.906749           7.917805             0.000001
   3339       0.00000                       7.906752           7.917811             0.000006
   3340       0.00000                       7.906753           7.917813             0.000001
   3341       0.00000                       7.907443           7.918490             0.000677
   3342       0.00000                       7.907445           7.918491             0.000001
   3343       0.00000                       7.907448           7.918496             0.000005
   3344       0.00000                       7.907449           7.918498             0.000001
   3345       0.00000                       7.907537           7.918585             0.000087
   3346       0.00000                       7.907539           7.918586             0.000001
   3347       0.00000                       7.907546           7.918607             0.000021
   3348       0.00000                       7.907547           7.918608             0.000001
   3349       0.00000                       8.376094           8.378476             0.459868
   3350       0.00000                       8.376099           8.378482             0.000005

  What follows are estimated values for band gap, HOMO, LUMO, etc.
  | They are estimated on a discrete k-point grid and not necessarily exact.
  | For converged numbers, create a DOS and/or band structure plot on a denser k-grid.

  Highest occupied state (VBM) at     -5.35945711 eV (relative to internal zero)
  | Occupation number:      1.00000000
  | K-point:       2 at    0.000000    0.500000    0.000000 (in units of recip. lattice)

  Lowest unoccupied state (CBM) at    -3.75279587 eV (relative to internal zero)
  | Occupation number:      0.00000000
  | K-point:       1 at    0.000000    0.000000    0.000000 (in units of recip. lattice)

  ESTIMATED overall HOMO-LUMO gap:      1.60666124 eV between HOMO at k-point 2 and LUMO at k-point 1
  | This appears to be an indirect band gap.
  | Smallest direct gap :      1.65000970 eV for k_point 2 at    0.000000    0.500000    0.000000 (in units of recip. lattice)
  The gap value is above 0.2 eV. Unless you are using a very sparse k-point grid,
  this system is most likely an insulator or a semiconductor.
  | Potential vacuum level, "upper" slab surface:    -0.05279278 eV
  | Potential vacuum level, "lower" slab surface:    -0.05279278 eV
  | Work function ("upper" slab surface)        :     4.29200314 eV
  | Work function ("lower" slab surface)        :     4.29200314 eV
  *** Warning: band gap may exist, check the suitability to define work function using chemical potential.
  | VBM (reference: upper vacuum level)         :     5.30666433 eV
  | CBM (reference: upper vacuum level)         :     3.70000309 eV

  Spin-orbit coupling                                     :  max(cpu_time)    wall_clock(cpu1)
  | Computing matrix elements for SOC operator            :          9.432               9.434
  | Constructing second-variational Hamiltonian           :          2.095               2.095
  | Diagonalizing second-variational Hamiltonian          :          1.270               1.270
  | Syncing data and calculating occupations              :          0.065               0.028
  | Writing out data, calculating band gaps, etc.         :          0.013               0.013
  | Total SOC time                                        :         12.848              12.848

  Partial memory accounting:
  | Current value for overall tracked memory usage:
  |   Minimum:       73.322 MB (on task  21)
  |   Maximum:       73.820 MB (on task   0)
  |   Average:       73.506 MB
  | Peak value for overall tracked memory usage:
  |   Minimum:      173.326 MB (on task 197 after allocating potential_shell)
  |   Maximum:      175.650 MB (on task   1 after allocating potential_shell)
  |   Average:      174.457 MB
  | Largest tracked array allocation so far:
  |   Minimum:       80.537 MB (soc_matrix on task   0)
  |   Maximum:       80.537 MB (soc_matrix on task   0)
  |   Average:       80.537 MB
  Note:  These values currently only include a subset of arrays which are explicitly tracked.
  The "true" memory usage will be greater.
 ------------------------------------------------------------
 Work function related results without post-SCF corrections:
 ------------------------------------------------------------
  | Chemical Potential                          :    -4.00159351 eV
  Writing energy levels:
  | Potential vacuum level, "upper" slab surface:    -0.05279278 eV
  | Potential vacuum level, "lower" slab surface:    -0.05279278 eV
  Spin-up energy levels:
  | Work function-spin ("upper" slab surface)   :     3.94880073 eV
  | Work function-spin ("lower" slab surface)   :     3.94880073 eV
  *** Warning: band gap may exist, check the suitability to define work function using chemical potential.
  | VBM-spin (reference: upper vacuum level)    :     5.39687912 eV
  | CBM-spin (reference: upper vacuum level)    :     3.68056138 eV
  Spin-down energy levels:
  | Work function-spin ("upper" slab surface)   :     3.94880073 eV
  | Work function-spin ("lower" slab surface)   :     3.94880073 eV
  *** Warning: band gap may exist, check the suitability to define work function using chemical potential.
  | VBM-spin (reference: upper vacuum level)    :     5.39687132 eV
  | CBM-spin (reference: upper vacuum level)    :     3.68055640 eV
 ------------------------------------------------------------
 Work function related results including post-SCF second variational SOC corrections:
 ------------------------------------------------------------
  | Chemical Potential                          :    -4.34479592 eV
  Writing energy levels:
  | Potential vacuum level, "upper" slab surface:    -0.05279278 eV
  | Potential vacuum level, "lower" slab surface:    -0.05279278 eV
  | Work function ("upper" slab surface)        :     4.29200314 eV
  | Work function ("lower" slab surface)        :     4.29200314 eV
  *** Warning: band gap may exist, check the suitability to define work function using chemical potential.
  | VBM (reference: upper vacuum level)         :     5.30666433 eV
  | CBM (reference: upper vacuum level)         :     3.70000309 eV
 ------------------------------------------------------------

------------------------------------------------------------------------------
  Final output of selected total energy values:

  The following output summarizes some interesting total energy values
  at the end of a run (AFTER all relaxation, molecular dynamics, etc.).

  | Total energy of the DFT / Hartree-Fock s.c.f. calculation      :       -6108318.639415685 eV
  | Final zero-broadening corrected energy (caution - metals only) :       -6108318.639415685 eV
  | Total energy after non-SC SOC correction (DO NOT USE)          :       -6108321.896487832 eV
  | For reference only, the value of 1 Hartree used in FHI-aims is :             27.211384500 eV
  | For reference only, the overall average (free atom contribution
  | + realspace contribution) of the electrostatic potential after
  | s.c.f. convergence is                                          :             -1.251985711 eV

  Before relying on these values, please be sure to understand exactly which
  total energy value is referred to by a given number. Different objects may
  all carry the same name 'total energy'. Definitions:

  Total energy of the DFT / Hartree-Fock s.c.f. calculation:
  | Note that this energy does not include ANY quantities calculated after the
  | s.c.f. cycle, in particular not ANY RPA, MP2, etc. many-body perturbation terms.

  Final zero-broadening corrected energy:
  | For metallic systems only, a broadening of the occupation numbers at the Fermi
  | level can be extrapolated back to zero broadening by an electron-gas inspired
  | formula. For all systems that are not real metals, this value can be
  | meaningless and should be avoided.

------------------------------------------------------------------------------
  Methods described in the following list of references were used in this FHI-aims run.
  If you publish the results, please make sure to cite these reference if they apply.
  FHI-aims is an academic code, and for our developers (often, Ph.D. students
  and postdocs), scientific credit in the community is essential.
  Thank you for helping us!

  For any use of FHI-aims, please cite:

    Volker Blum, Ralf Gehrke, Felix Hanke, Paula Havu, Ville Havu,
    Xinguo Ren, Karsten Reuter, and Matthias Scheffler
    'Ab initio molecular simulations with numeric atom-centered orbitals'
    Computer Physics Communications 180, 2175-2196 (2009)
    http://doi.org/10.1016/j.cpc.2009.06.022


  The provided symmetry information was generated with SPGlib:

    Atsushi Togo, Yusuke Seto, Dimitar Pashov
    SPGlib 1.7.3 obtained from http://spglib.sourceforge.net
    Copyright (C) 2008 Atsushi Togo


  For second-variational spin-orbit coupling used in your run, please cite:

    William P. Huhn and Volker Blum,
    'One-hundred-three compound band-structure benchmark of post-self-consistent'
    'spin-orbit coupling treatments in density functional theory'
    Phys. Rev. Materials 1, 033803 (2017).


  The ELSI infrastructure was used in your run to solve the Kohn-Sham electronic structure.
  Please check out http://elsi-interchange.org to learn more.
  If scalability is important for your project, please acknowledge ELSI by citing:

    V. W-z. Yu, F. Corsetti, A. Garcia, W. P. Huhn, M. Jacquelin, W. Jia,
    B. Lange, L. Lin, J. Lu, W. Mi, A. Seifitokaldani, A. Vazquez-Mayagoitia,
    C. Yang, H. Yang, and V. Blum
    'ELSI: A unified software interface for Kohn-Sham electronic structure solvers'
    Computer Physics Communications 222, 267-285 (2018).
    http://doi.org/10.1016/j.cpc.2017.09.007


  For the real-space grid partitioning and parallelization used in this calculation, please cite:

    Ville Havu, Volker Blum, Paula Havu, and Matthias Scheffler,
    'Efficient O(N) integration for all-electron electronic structure calculation'
    'using numerically tabulated basis functions'
    Journal of Computational Physics 228, 8367-8379 (2009).
    http://doi.org/10.1016/j.jcp.2009.08.008

  Of course, there are many other important community references, e.g., those cited in the
  above references. Our list is limited to references that describe implementations in the
  FHI-aims code. The reason is purely practical (length of this list) - please credit others as well.

------------------------------------------------------------
          Leaving FHI-aims.
          Date     :  20220913, Time     :  134332.786

          Computational steps:
          | Number of self-consistency cycles          :           27
          | Number of SCF (re)initializations          :            1

          Detailed time accounting                     :  max(cpu_time)    wall_clock(cpu1)
          | Total time                                  :      268.307 s         269.368 s
          | Preparation time                            :        1.337 s           1.515 s
          | Boundary condition initalization            :        0.815 s           0.815 s
          | Grid partitioning                           :        1.106 s           1.108 s
          | Preloading free-atom quantities on grid     :        1.863 s           1.919 s
          | Free-atom superposition energy              :        0.050 s           0.050 s
          | Total time for integrations                 :       57.205 s          57.219 s
          | Total time for solution of K.-S. equations  :       20.324 s          20.323 s
          | Total time for density update               :      109.625 s         109.661 s
          | Total time for mixing & preconditioning     :       15.819 s          15.813 s
          | Total time for Hartree multipole update     :        0.346 s           0.349 s
          | Total time for Hartree multipole sum        :       41.253 s          41.256 s
          | Total time for total energy evaluation      :        0.018 s           0.036 s
          | Total time for scaled ZORA corrections      :        0.000 s           0.000 s
          | Total time for vdW correction               :        5.241 s           5.244 s
          | Total time for matrix I/O                   :        3.351 s           3.742 s
          | Total time for perturbative SOC             :       12.848 s          12.848 s

          Partial memory accounting:
          | Residual value for overall tracked memory usage across tasks:     0.000000 MB (should be 0.000000 MB)
          | Peak values for overall tracked memory usage:
          |   Minimum:      173.326 MB (on task 197 after allocating potential_shell)
          |   Maximum:      175.650 MB (on task   1 after allocating potential_shell)
          |   Average:      174.457 MB
          | Largest tracked array allocation:
          |   Minimum:       80.537 MB (soc_matrix on task   0)
          |   Maximum:       80.537 MB (soc_matrix on task   0)
          |   Average:       80.537 MB
          Note:  These values currently only include a subset of arrays which are explicitly tracked.
          The "true" memory usage will be greater.

          Have a nice day.
------------------------------------------------------------
