------------------------------------------------------------
          Invoking FHI-aims ...

          When using FHI-aims, please cite the following reference:

            Volker Blum, Ralf Gehrke, Felix Hanke, Paula Havu,
            Ville Havu, Xinguo Ren, Karsten Reuter, and Matthias Scheffler,
            'Ab Initio Molecular Simulations with Numeric Atom-Centered Orbitals',
            Computer Physics Communications 180, 2175-2196 (2009)

          In addition, many other developments in FHI-aims are likely important for
          your particular application. A partial list of references is given at the end of
          this file. Thank you for giving credit to the authors of these developments.

          For any questions about FHI-aims, please visit our slack channel at

            https://fhi-aims.slack.com

          and our main development and support site at

            https://aims-git.rz-berlin.mpg.de .

          The latter site, in particular, has a wiki to collect information, as well
          as an issue tracker to log discussions, suggest improvements, and report issues
          or bugs. https://aims-git.rz-berlin.mpg.de is also the main development site
          of the project and all new and updated code versions can be obtained there.
          Please send an email to aims-coordinators@fhi-berlin.mpg.de and we will add
          you to these sites. They are for you and everyone is welcome there.

------------------------------------------------------------



  Date     :  20221005, Time     :  074529.229
  Time zero on CPU 1             :   0.279747000000000E+00  s.
  Internal wall clock time zero  :           434187929.229  s.

  FHI-aims created a unique identifier for this run for later identification
  aims_uuid : E5355FA2-B530-47FB-A1B3-2630F88C2358

  Build configuration of the current instance of FHI-aims
  -------------------------------------------------------
  FHI-aims version      : 220117
  Commit number         : 0c0e6afe2
  CMake host system     : Linux-5.3.18-24.99-default
  CMake version         : 3.22.0
  Fortran compiler      : /mpcdf/soft/SLE_15/packages/x86_64/intel_oneapi/2021.4/mpi/2021.4.0/bin/mpiifort (Intel) version 2021.4.0.20210910
  Fortran compiler flags: -O3 -ip -fp-model precise
  C compiler            : /mpcdf/soft/SLE_15/packages/x86_64/intel/2021.4.0/bin/icc (Intel) version 2021.4.0.20210910
  C compiler flags      : -O3 -ip -fp-model precise
  C++ compiler          : /mpcdf/soft/SLE_15/packages/x86_64/intel/2021.4.0/bin/icpc (Intel) version 2021.4.0.20210910
  C++ compiler flags    : -O3 -ip -fp-model precise
  Using MPI
  Using ScaLAPACK
  Using LibXC
  Using i-PI
  Using RLSY
  Linking against: /mpcdf/soft/SLE_15/packages/x86_64/intel_oneapi/2021.4/mkl/latest/lib/intel64/libmkl_intel_lp64.so
                   /mpcdf/soft/SLE_15/packages/x86_64/intel_oneapi/2021.4/mkl/latest/lib/intel64/libmkl_sequential.so
                   /mpcdf/soft/SLE_15/packages/x86_64/intel_oneapi/2021.4/mkl/latest/lib/intel64/libmkl_core.so
                   /mpcdf/soft/SLE_15/packages/x86_64/intel_oneapi/2021.4/mkl/latest/lib/intel64/libmkl_blacs_intelmpi_lp64.so
                   /mpcdf/soft/SLE_15/packages/x86_64/intel_oneapi/2021.4/mkl/latest/lib/intel64/libmkl_scalapack_lp64.so

  Using      288 parallel tasks.
  Task        0 on host ravc2069 reporting.
  Task        1 on host ravc2069 reporting.
  Task        2 on host ravc2069 reporting.
  Task        3 on host ravc2069 reporting.
  Task        4 on host ravc2069 reporting.
  Task        5 on host ravc2069 reporting.
  Task        6 on host ravc2069 reporting.
  Task        7 on host ravc2069 reporting.
  Task        8 on host ravc2069 reporting.
  Task        9 on host ravc2069 reporting.
  Task       10 on host ravc2069 reporting.
  Task       11 on host ravc2069 reporting.
  Task       12 on host ravc2069 reporting.
  Task       13 on host ravc2069 reporting.
  Task       14 on host ravc2069 reporting.
  Task       15 on host ravc2069 reporting.
  Task       16 on host ravc2069 reporting.
  Task       17 on host ravc2069 reporting.
  Task       18 on host ravc2069 reporting.
  Task       19 on host ravc2069 reporting.
  Task       20 on host ravc2069 reporting.
  Task       21 on host ravc2069 reporting.
  Task       22 on host ravc2069 reporting.
  Task       23 on host ravc2069 reporting.
  Task       24 on host ravc2069 reporting.
  Task       25 on host ravc2069 reporting.
  Task       26 on host ravc2069 reporting.
  Task       27 on host ravc2069 reporting.
  Task       28 on host ravc2069 reporting.
  Task       29 on host ravc2069 reporting.
  Task       30 on host ravc2069 reporting.
  Task       31 on host ravc2069 reporting.
  Task       32 on host ravc2069 reporting.
  Task       33 on host ravc2069 reporting.
  Task       34 on host ravc2069 reporting.
  Task       35 on host ravc2069 reporting.
  Task       36 on host ravc2069 reporting.
  Task       37 on host ravc2069 reporting.
  Task       38 on host ravc2069 reporting.
  Task       39 on host ravc2069 reporting.
  Task       40 on host ravc2069 reporting.
  Task       41 on host ravc2069 reporting.
  Task       42 on host ravc2069 reporting.
  Task       43 on host ravc2069 reporting.
  Task       44 on host ravc2069 reporting.
  Task       45 on host ravc2069 reporting.
  Task       46 on host ravc2069 reporting.
  Task       47 on host ravc2069 reporting.
  Task       48 on host ravc2069 reporting.
  Task       49 on host ravc2069 reporting.
  Task       50 on host ravc2069 reporting.
  Task       51 on host ravc2069 reporting.
  Task       52 on host ravc2069 reporting.
  Task       53 on host ravc2069 reporting.
  Task       54 on host ravc2069 reporting.
  Task       55 on host ravc2069 reporting.
  Task       56 on host ravc2069 reporting.
  Task       57 on host ravc2069 reporting.
  Task       58 on host ravc2069 reporting.
  Task       59 on host ravc2069 reporting.
  Task       60 on host ravc2069 reporting.
  Task       61 on host ravc2069 reporting.
  Task       62 on host ravc2069 reporting.
  Task       63 on host ravc2069 reporting.
  Task       64 on host ravc2069 reporting.
  Task       65 on host ravc2069 reporting.
  Task       66 on host ravc2069 reporting.
  Task       67 on host ravc2069 reporting.
  Task       68 on host ravc2069 reporting.
  Task       69 on host ravc2069 reporting.
  Task       70 on host ravc2069 reporting.
  Task       71 on host ravc2069 reporting.
  Task       72 on host ravc2161 reporting.
  Task       73 on host ravc2161 reporting.
  Task       74 on host ravc2161 reporting.
  Task       75 on host ravc2161 reporting.
  Task       76 on host ravc2161 reporting.
  Task       77 on host ravc2161 reporting.
  Task       78 on host ravc2161 reporting.
  Task       79 on host ravc2161 reporting.
  Task       80 on host ravc2161 reporting.
  Task       81 on host ravc2161 reporting.
  Task       82 on host ravc2161 reporting.
  Task       83 on host ravc2161 reporting.
  Task       84 on host ravc2161 reporting.
  Task       85 on host ravc2161 reporting.
  Task       86 on host ravc2161 reporting.
  Task       87 on host ravc2161 reporting.
  Task       88 on host ravc2161 reporting.
  Task       89 on host ravc2161 reporting.
  Task       90 on host ravc2161 reporting.
  Task       91 on host ravc2161 reporting.
  Task       92 on host ravc2161 reporting.
  Task       93 on host ravc2161 reporting.
  Task       94 on host ravc2161 reporting.
  Task       95 on host ravc2161 reporting.
  Task       96 on host ravc2161 reporting.
  Task       97 on host ravc2161 reporting.
  Task       98 on host ravc2161 reporting.
  Task       99 on host ravc2161 reporting.
  Task      100 on host ravc2161 reporting.
  Task      101 on host ravc2161 reporting.
  Task      102 on host ravc2161 reporting.
  Task      103 on host ravc2161 reporting.
  Task      104 on host ravc2161 reporting.
  Task      105 on host ravc2161 reporting.
  Task      106 on host ravc2161 reporting.
  Task      107 on host ravc2161 reporting.
  Task      108 on host ravc2161 reporting.
  Task      109 on host ravc2161 reporting.
  Task      110 on host ravc2161 reporting.
  Task      111 on host ravc2161 reporting.
  Task      112 on host ravc2161 reporting.
  Task      113 on host ravc2161 reporting.
  Task      114 on host ravc2161 reporting.
  Task      115 on host ravc2161 reporting.
  Task      116 on host ravc2161 reporting.
  Task      117 on host ravc2161 reporting.
  Task      118 on host ravc2161 reporting.
  Task      119 on host ravc2161 reporting.
  Task      120 on host ravc2161 reporting.
  Task      121 on host ravc2161 reporting.
  Task      122 on host ravc2161 reporting.
  Task      123 on host ravc2161 reporting.
  Task      124 on host ravc2161 reporting.
  Task      125 on host ravc2161 reporting.
  Task      126 on host ravc2161 reporting.
  Task      127 on host ravc2161 reporting.
  Task      128 on host ravc2161 reporting.
  Task      129 on host ravc2161 reporting.
  Task      130 on host ravc2161 reporting.
  Task      131 on host ravc2161 reporting.
  Task      132 on host ravc2161 reporting.
  Task      133 on host ravc2161 reporting.
  Task      134 on host ravc2161 reporting.
  Task      135 on host ravc2161 reporting.
  Task      136 on host ravc2161 reporting.
  Task      137 on host ravc2161 reporting.
  Task      138 on host ravc2161 reporting.
  Task      139 on host ravc2161 reporting.
  Task      140 on host ravc2161 reporting.
  Task      141 on host ravc2161 reporting.
  Task      142 on host ravc2161 reporting.
  Task      143 on host ravc2161 reporting.
  Task      144 on host ravc2253 reporting.
  Task      145 on host ravc2253 reporting.
  Task      146 on host ravc2253 reporting.
  Task      147 on host ravc2253 reporting.
  Task      148 on host ravc2253 reporting.
  Task      149 on host ravc2253 reporting.
  Task      150 on host ravc2253 reporting.
  Task      151 on host ravc2253 reporting.
  Task      152 on host ravc2253 reporting.
  Task      153 on host ravc2253 reporting.
  Task      154 on host ravc2253 reporting.
  Task      155 on host ravc2253 reporting.
  Task      156 on host ravc2253 reporting.
  Task      157 on host ravc2253 reporting.
  Task      158 on host ravc2253 reporting.
  Task      159 on host ravc2253 reporting.
  Task      160 on host ravc2253 reporting.
  Task      161 on host ravc2253 reporting.
  Task      162 on host ravc2253 reporting.
  Task      163 on host ravc2253 reporting.
  Task      164 on host ravc2253 reporting.
  Task      165 on host ravc2253 reporting.
  Task      166 on host ravc2253 reporting.
  Task      167 on host ravc2253 reporting.
  Task      168 on host ravc2253 reporting.
  Task      169 on host ravc2253 reporting.
  Task      170 on host ravc2253 reporting.
  Task      171 on host ravc2253 reporting.
  Task      172 on host ravc2253 reporting.
  Task      173 on host ravc2253 reporting.
  Task      174 on host ravc2253 reporting.
  Task      175 on host ravc2253 reporting.
  Task      176 on host ravc2253 reporting.
  Task      177 on host ravc2253 reporting.
  Task      178 on host ravc2253 reporting.
  Task      179 on host ravc2253 reporting.
  Task      180 on host ravc2253 reporting.
  Task      181 on host ravc2253 reporting.
  Task      182 on host ravc2253 reporting.
  Task      183 on host ravc2253 reporting.
  Task      184 on host ravc2253 reporting.
  Task      185 on host ravc2253 reporting.
  Task      186 on host ravc2253 reporting.
  Task      187 on host ravc2253 reporting.
  Task      188 on host ravc2253 reporting.
  Task      189 on host ravc2253 reporting.
  Task      190 on host ravc2253 reporting.
  Task      191 on host ravc2253 reporting.
  Task      192 on host ravc2253 reporting.
  Task      193 on host ravc2253 reporting.
  Task      194 on host ravc2253 reporting.
  Task      195 on host ravc2253 reporting.
  Task      196 on host ravc2253 reporting.
  Task      197 on host ravc2253 reporting.
  Task      198 on host ravc2253 reporting.
  Task      199 on host ravc2253 reporting.
  Task      200 on host ravc2253 reporting.
  Task      201 on host ravc2253 reporting.
  Task      202 on host ravc2253 reporting.
  Task      203 on host ravc2253 reporting.
  Task      204 on host ravc2253 reporting.
  Task      205 on host ravc2253 reporting.
  Task      206 on host ravc2253 reporting.
  Task      207 on host ravc2253 reporting.
  Task      208 on host ravc2253 reporting.
  Task      209 on host ravc2253 reporting.
  Task      210 on host ravc2253 reporting.
  Task      211 on host ravc2253 reporting.
  Task      212 on host ravc2253 reporting.
  Task      213 on host ravc2253 reporting.
  Task      214 on host ravc2253 reporting.
  Task      215 on host ravc2253 reporting.
  Task      216 on host ravc2285 reporting.
  Task      217 on host ravc2285 reporting.
  Task      218 on host ravc2285 reporting.
  Task      219 on host ravc2285 reporting.
  Task      220 on host ravc2285 reporting.
  Task      221 on host ravc2285 reporting.
  Task      222 on host ravc2285 reporting.
  Task      223 on host ravc2285 reporting.
  Task      224 on host ravc2285 reporting.
  Task      225 on host ravc2285 reporting.
  Task      226 on host ravc2285 reporting.
  Task      227 on host ravc2285 reporting.
  Task      228 on host ravc2285 reporting.
  Task      229 on host ravc2285 reporting.
  Task      230 on host ravc2285 reporting.
  Task      231 on host ravc2285 reporting.
  Task      232 on host ravc2285 reporting.
  Task      233 on host ravc2285 reporting.
  Task      234 on host ravc2285 reporting.
  Task      235 on host ravc2285 reporting.
  Task      236 on host ravc2285 reporting.
  Task      237 on host ravc2285 reporting.
  Task      238 on host ravc2285 reporting.
  Task      239 on host ravc2285 reporting.
  Task      240 on host ravc2285 reporting.
  Task      241 on host ravc2285 reporting.
  Task      242 on host ravc2285 reporting.
  Task      243 on host ravc2285 reporting.
  Task      244 on host ravc2285 reporting.
  Task      245 on host ravc2285 reporting.
  Task      246 on host ravc2285 reporting.
  Task      247 on host ravc2285 reporting.
  Task      248 on host ravc2285 reporting.
  Task      249 on host ravc2285 reporting.
  Task      250 on host ravc2285 reporting.
  Task      251 on host ravc2285 reporting.
  Task      252 on host ravc2285 reporting.
  Task      253 on host ravc2285 reporting.
  Task      254 on host ravc2285 reporting.
  Task      255 on host ravc2285 reporting.
  Task      256 on host ravc2285 reporting.
  Task      257 on host ravc2285 reporting.
  Task      258 on host ravc2285 reporting.
  Task      259 on host ravc2285 reporting.
  Task      260 on host ravc2285 reporting.
  Task      261 on host ravc2285 reporting.
  Task      262 on host ravc2285 reporting.
  Task      263 on host ravc2285 reporting.
  Task      264 on host ravc2285 reporting.
  Task      265 on host ravc2285 reporting.
  Task      266 on host ravc2285 reporting.
  Task      267 on host ravc2285 reporting.
  Task      268 on host ravc2285 reporting.
  Task      269 on host ravc2285 reporting.
  Task      270 on host ravc2285 reporting.
  Task      271 on host ravc2285 reporting.
  Task      272 on host ravc2285 reporting.
  Task      273 on host ravc2285 reporting.
  Task      274 on host ravc2285 reporting.
  Task      275 on host ravc2285 reporting.
  Task      276 on host ravc2285 reporting.
  Task      277 on host ravc2285 reporting.
  Task      278 on host ravc2285 reporting.
  Task      279 on host ravc2285 reporting.
  Task      280 on host ravc2285 reporting.
  Task      281 on host ravc2285 reporting.
  Task      282 on host ravc2285 reporting.
  Task      283 on host ravc2285 reporting.
  Task      284 on host ravc2285 reporting.
  Task      285 on host ravc2285 reporting.
  Task      286 on host ravc2285 reporting.
  Task      287 on host ravc2285 reporting.

  Performing system and environment tests:
  | Environment variable OMP_NUM_THREADS correctly set to 1.
  | Checking for ScaLAPACK...
  | Testing pdtran()...
  | All pdtran() tests passed.

  Obtaining array dimensions for all initial allocations:
  
  -----------------------------------------------------------------------
  Parsing control.in (first pass over file, find array dimensions only).
  The contents of control.in will be repeated verbatim below
  unless switched off by setting 'verbatim_writeout .false.' .
  in the first line of control.in .
  -----------------------------------------------------------------------
  
  xc                 hse06  0.11
  hse_unit b
  spin               collinear
  default_initial_moment 1
  charge      0.0
  relativistic       atomic_zora scalar
  #elsi_restart read
  output dos_tetrahedron -10 0 1001 0.1
  output species_proj_dos_tetrahedron -10 0 1001 0.1
  # SCF settings
  #relax_geometry bfgs 1E-3
  #relax_unit_cell fixed_angles
  use_symmetric_forces .true.
  occupation_type gaussian       0.1
  # k-grid settings  (to be adjusted)
  k_grid  4 4 1
  #empty_states 8
  use_dipole_correction
  include_spin_orbit non_self_consistent
  #energy_tolerance 1e-3
   sc_accuracy_rho    1E-4
      sc_accuracy_eev    1E-3
      sc_accuracy_etot   1E-4
      sc_accuracy_forces 1E-2
  many_body_dispersion_nl    beta=0.83
  ################################################################################
  #
  #  FHI-aims code project
  #  Volker Blum, 2018
  #
  #  Suggested "intermediate" defaults for Se atom (to be pasted into control.in file)
  #
  #  2020/09/15 These "intermediate" settings are identical to past "tight" defaults
  #             and differ only in the "g" function that is now included in "tight".
  #
  ################################################################################
    species        Se
  #     global species definitions
      nucleus             34
      mass                78.96
  #
      l_hartree           6
  #
      cut_pot             4.0          2.0  1.0
      basis_dep_cutoff    1e-4
  #
      radial_base         55 7.0
      radial_multiplier   2
      angular_grids       specified
        division   0.0830  110
        division   0.1357  194
        division   0.7377  302
        division   0.8610  434
  #      division   0.9640  590
  #      division   1.0773  770
  #      division   2.5539  974
  #      outer_grid  974
        outer_grid  434
  ################################################################################
  #
  #  Definition of "minimal" basis
  #
  ################################################################################
  #     valence basis states
      valence      4  s   2.
      valence      4  p   4.
      valence      3  d  10.
  #     ion occupancy
      ion_occ      4  s   1.
      ion_occ      4  p   3.
      ion_occ      3  d  10.
  ################################################################################
  #
  #  Suggested additional basis functions. For production calculations,
  #  uncomment them one after another (the most important basis functions are
  #  listed first).
  #
  #  Constructed for dimers: 1.85 A, 2.15 A, 2.50 A, 3.00 A, 4.00 A
  #
  ################################################################################
  #  "First tier" - improvements: -336.21 meV to -36.85 meV
       hydro 3 d 4.3
       hydro 2 p 1.6
       hydro 4 f 7.2
       ionic 4 s auto
  #  "Second tier" - improvements: -14.39 meV to -1.49 meV
  #     hydro 5 g 10.4
  #     hydro 4 p 4.5
  #     hydro 4 d 6.2
  #     hydro 4 f 11.2
  #     hydro 1 s 0.65
  #     hydro 6 h 15.2
  #  "Third tier" - improvements: -0.46 meV and below
  #     hydro 5 g 14.4
  #     ionic 4 d auto
  #     hydro 4 f 22.4
  #     hydro 5 f 7.4
  #     hydro 5 p 8
  #     hydro 5 s 9.4
  #  "Fourth tier" - improvements: -0.12 meV and below
  #     hydro 5 d 11.6
  #     hydro 6 h 18
  #     hydro 4 p 4
  #     hydro 5 f 16
  #     hydro 4 s 3.9
  
  
  ################################################################################
  #
  #  FHI-aims code project
  #  Volker Blum, 2018
  #
  #  Suggested "intermediate" defaults for S atom (to be pasted into control.in file)
  #
  ################################################################################
    species        S
  #     global species definitions
      nucleus             16
      mass                32.065
  #
      l_hartree           6
  #
      cut_pot             4.0          2.0  1.0
      basis_dep_cutoff    1e-4
  #
      radial_base         44 7.0
      radial_multiplier   2
      angular_grids       specified
        division   0.4665  110
        division   0.5810  194
        division   0.7139  302
        division   0.8274  434
  #      division   0.9105  590
  #      division   1.0975  770
  #      division   1.2028  974
  #      outer_grid  974
        outer_grid  434
  ################################################################################
  #
  #  Definition of "minimal" basis
  #
  ################################################################################
  #     valence basis states
      valence      3  s   2.
      valence      3  p   4.
  #     ion occupancy
      ion_occ      3  s   1.
      ion_occ      3  p   3.
  ################################################################################
  #
  #  Suggested additional basis functions. For production calculations,
  #  uncomment them one after another (the most important basis functions are
  #  listed first).
  #
  #  Constructed for dimers: 1.6 A, 1.9 A, 2.5 A, 3.25 A, 4.0 A
  #
  ################################################################################
  #  "First tier" - improvements: -652.81 meV to -45.53 meV
       ionic 3 d auto
       hydro 2 p 1.8
       hydro 4 f 7
       ionic 3 s auto
  #  "Second tier" - improvements: -30.20 meV to -1.74 meV
  #     hydro 4 d 6.2
  for_aux     hydro 5 g 10.8
  #     hydro 4 p 4.9
  #     hydro 5 f 10
  #     hydro 1 s 0.8
  #  "Third tier" - improvements: -1.04 meV to -0.20 meV
  #     hydro 3 d 3.9
  #     hydro 3 d 2.7
  #     hydro 5 g 12
  #     hydro 4 p 10.4
  #     hydro 5 f 12.4
  #     hydro 2 s 1.9
  #  "Fourth tier" - improvements: -0.35 meV to -0.06 meV
  #     hydro 4 d 10.4
  #     hydro 4 p 7.2
  #     hydro 4 d 10
  #     hydro 5 g 19.2
  #     hydro 4 s 12
  
  ################################################################################
  #
  #  FHI-aims code project
  # Volker Blum, Fritz Haber Institute Berlin, 2009
  #
  #  Suggested "intermediate" defaults for Mo atom (to be pasted into control.in file)
  #
  #  See https://aaltodoc.aalto.fi/handle/123456789/33620 for the report these
  #  setting are based on
  ################################################################################
    species        Mo
  #     global species definitions
      nucleus             42
      mass                95.94
  #
      l_hartree           6
  #
      cut_pot             4.0  2.0  1.0
      basis_dep_cutoff    1e-4
  #
      radial_base         59 7.0
      radial_multiplier   2
      angular_grids specified
        division   0.3117   50
        division   0.6750  110
        division   1.0351  194
        division   1.2073  302
        division   1.6402  434
  #      division   1.9185  590
  #      division   2.0237  770
  #      division   2.0980  974
  #      division   2.7972 1202
  #      outer_grid  974
        outer_grid  434
  ################################################################################
  #
  #  Definition of "minimal" basis
  #
  ################################################################################
  #     valence basis states
      valence      5  s   1.
      valence      4  p   6.
      valence      4  d   5.
  #     ion occupancy
      ion_occ     5  s   0.
      ion_occ     4  p   6.
      ion_occ     4  d   4.
  ################################################################################
  #
  #  Suggested additional basis functions. For production calculations,
  #  uncomment them one after another (the most important basis functions are
  #  listed first).
  #
  #  Constructed for dimers: 1.675 A, 1.9 A, 2.375 A, 3.00 A, 4.00 A
  #
  ################################################################################
  #  "First tier"  - max. impr. -711.23  meV, min. impr. -21.07 meV
       hydro 4 f 8.4
       hydro 3 d 2.8
       ionic 5 p auto
       for_aux hydro 5 g 12
       ionic 5 s auto
  #  "Second tier" - max. impr. -39.38  meV, min. impr. -2.68 meV
  #     hydro 4 f 12.4
  #     hydro 3 d 3.3
  #     hydro 6 h 17.2
  #     hydro 4 f 7.6
  #     hydro 3 p 3.0
  #     hydro 1 s 0.65
  #  "Third tier"  - max. impr. -5.50 meV, min. impr. -0.47 meV
  #     hydro 4 f 29.2
  #     hydro 5 g 11.2
  #     hydro 3 d 6.8
  #     hydro 6 h 14.8
  #     hydro 2 p 2.3
  #     hydro 4 s 3.8
  #  "Fourth tier"  - max. impr. -0.58 meV, min. impr. -0.19 meV
  #     hydro 5 f 6.8
  #     hydro 5 d 14.8
  #     hydro 6 s 7.8
  #     hydro 5 g 20.8
  #     hydro 5 d 10.4
  #     hydro 5 p 9.8
  #  Further functions - -0.17 meV and below
  #     hydro 5 d 3.2
  ################################################################################
  #
  #  FHI-aims code project
  #  Volker Blum, Maria Dragoumi, Sebastian Kokott 2020
  #
  #  Suggested "intermediate" defaults for W atom (to be pasted into control.in file)
  #
  ################################################################################
    species          W
  #     global species definitions
      nucleus        74
      mass           183.84
  #
      l_hartree      6
  #
      cut_pot        4.0  2.0  1.0
      basis_dep_cutoff    1e-4
  #
      radial_base    71  7.0
      radial_multiplier  2
      angular_grids specified
        division   0.2901   50
        division   0.6986  110
        division   1.0528  194
        division   1.2659  302
        division   1.5223  434
  #      division   1.8111  590
  #      division   2.0105  770
  #      division   2.0413  974
  #      division   2.8804 1202
  #      outer_grid  974
        outer_grid  434
  ################################################################################
  #
  #  Definition of "minimal" basis
  #
  ################################################################################
  #     valence basis states
      valence      6  s   2.
      valence      5  p   6.
      valence      5  d   4.
      valence      4  f  14.
  #     ion occupancy
      ion_occ      6  s   1.
      ion_occ      5  p   6.
      ion_occ      5  d   3.
      ion_occ      4  f  14.
  ################################################################################
  #
  #  Suggested additional basis functions. For production calculations,
  #  uncomment them one after another (the most important basis functions are
  #  listed first).
  #
  #  Constructed for dimers: 1.775, 1.99, 2.50, 3.25, 4.50 AA
  #
  ################################################################################
  #
  #  "First tier" - improvements: -603.77 meV to -28.99 meV
       hydro 4 f 7.8
       hydro 4 d 5.8
       ionic 6 p auto
    for_aux   hydro 5 g 12.4
       ionic 6 s auto
  #  "Second tier" - improvements: -28.30 meV to -1.31 meV
  #     hydro 6 h 16.8
  #     ionic 5 d auto
  #     hydro 4 f 8.6
  #     hydro 5 g 16.8
  #     hydro 5 d 8.4
  #     hydro 3 p 3.3
  #     hydro 1 s 0.55
  #  "Third tier" - max. impr. -1.79 meV, min. impr. -0.26 meV
  #     hydro 5 f 10.8
  #     hydro 5 g 34.4
  #     hydro 6 h 20.8
  #     hydro 5 g 12.8
  #     hydro 2 p 1.6
  #     hydro 4 s 4.7
  #     hydro 6 d 18.4
  #  "Fourth tier" -0.46 max. impr. - meV, min. impr. -0.09 meV
  #     hydro 6 h 21.6
  #     hydro 5 f 22.4
  #     hydro 4 f 4
  #     hydro 5 p 9.6
  #     hydro 6 d 17.2
  #     hydro 3 p 5.2
  #     hydro 5 g 4.7
  #     hydro 6 s 7.6
  
  -----------------------------------------------------------------------
  Completed first pass over input file control.in .
  -----------------------------------------------------------------------
  
  
  -----------------------------------------------------------------------
  Parsing geometry.in (first pass over file, find array dimensions only).
  The contents of geometry.in will be repeated verbatim below
  unless switched off by setting 'verbatim_writeout .false.' .
  in the first line of geometry.in .
  -----------------------------------------------------------------------
  
  #
  # This is the geometry file that corresponds to the current relaxation step.
  # If you do not want this file to be written, set the "write_restart_geometry" flag to .false.
  #  aims_uuid : 0046A6AE-731E-4A3B-A520-3359B5DFCB7F
  #
    set_vacuum_level         0.002315
  lattice_vector     15.72847685      0.00000000      0.00000000
  lattice_vector     -7.86461685     13.62035640      0.00000000
  lattice_vector      0.00000000      0.00000000    103.13570646
  atom       0.00002949      0.90734735     51.60615931 W
  atom       1.58744611      1.83467857     53.15836876 S
  atom       1.56795724      1.82414904     50.03394299 S
  atom      -1.56959960      3.64149733     51.61295779 W
  atom       0.01849476      4.58602966     53.14976713 S
  atom      -0.00680745      4.53501074     50.02404915 S
  atom      -3.13433268      6.37662054     51.60859273 W
  atom      -1.49706853      7.35278534     53.12232866 S
  atom      -1.58610507      7.27548599     49.99094988 S
  atom      -4.70730445      9.07504312     51.58848500 W
  atom      -3.05441735      9.98807380     53.10940530 S
  atom      -3.13674040      9.96260124     49.98561536 S
  atom      -6.29313494     11.79619708     51.58739016 W
  atom      -4.69362068     12.69706379     53.13570415 S
  atom      -4.72485392     12.71514477     50.01436529 S
  atom       3.15145686      0.91233415     51.58746287 W
  atom       4.72458686      1.83289663     53.14399492 S
  atom       4.72635045      1.81756400     50.02094246 S
  atom       1.58231629      3.65943271     51.58770911 W
  atom       3.18361644      4.64228481     53.11820870 S
  atom       3.13833733      4.56319751     49.98777658 S
  atom       0.01739624      6.38655104     51.54786631 W
  atom       1.61592508      7.34131957     53.06712920 S
  atom       1.59398255      7.25688197     49.93631913 S
  atom      -1.49659267      9.11660559     51.50211953 W
  atom       0.00071036      9.98695965     49.87554276 S
  atom      -3.12184399     11.78973426     51.54906123 W
  atom      -1.52776801     12.63210338     53.10939872 S
  atom      -1.54692735     12.71619277     49.98560020 S
  atom       6.30112306      0.89968878     51.58851842 W
  atom       7.85094827      1.80901798     53.17438705 S
  atom       7.87272758      1.82492510     50.04392310 S
  atom       4.71738384      3.66332025     51.56541676 W
  atom       6.23930741      4.61660715     53.13393219 S
  atom       6.31064221      4.55577450     50.00412333 S
  atom       3.20601398      6.41144094     51.49811189 W
  atom       4.72839432      7.25765639     49.89390250 S
  atom       1.53768201      9.09969728     51.45793500 W
  atom       3.09969022      9.91118762     53.06706293 S
  atom       3.16175086      9.97237590     49.93624258 S
  atom       0.00588190     11.71887934     51.50205361 W
  atom       1.53317906     12.60114831     53.12226314 S
  atom       1.55557273     12.71696433     49.99087762 S
  atom       9.42454419      0.88678773     51.60857875 W
  atom      10.99771960      1.79214642     53.18609869 S
  atom      11.00291565      1.81871802     50.05799526 S
  atom       7.85710792      3.64354467     51.61221260 W
  atom       9.42421380      4.54682427     53.19107770 S
  atom       9.44214416      4.53643493     50.05846274 S
  atom       6.22536796      6.39349671     51.52101537 W
  atom       7.77120470      7.26994860     53.13388406 S
  atom       7.85951799      7.23853316     50.00409243 S
  atom       4.70006925      8.99924148     51.49804361 W
  atom       6.22101169      9.90322301     53.11812903 S
  atom       6.26685185      9.98194961     49.98765503 S
  atom       3.12727718     11.77289871     51.54777419 W
  atom       4.68714585     12.67221820     53.14967890 S
  atom       4.71866730     12.71967135     50.02395219 S
  atom      12.57570419      0.89944523     51.61291551 W
  atom      14.15768878      1.81412829     53.17691852 S
  atom      14.14902753      1.81916504     50.04989212 S
  atom      11.00845250      3.63222655     51.63125771 W
  atom      12.59667635      4.56158022     53.18612386 S
  atom      12.57629573      4.54377719     50.05802411 S
  atom       9.42288332      6.35556336     51.61217968 W
  atom      11.00858580      7.27821708     53.17436204 S
  atom      11.00571628      7.25136396     50.04392324 S
  atom       7.83576096      9.06456741     51.56535373 W
  atom       9.42460736      9.97357884     53.14393409 S
  atom       9.43879622      9.97969818     50.02088754 S
  atom       6.27154784     11.78134008     51.58761968 W
  atom       7.85444456     12.68929713     53.15829943 S
  atom       7.85383809     12.71149696     50.03389991 S
  #
  # What follows is the current estimated Hessian matrix constructed by the BFGS algorithm.
  # This is NOT the true Hessian matrix of the system.
  # If you do not want this information here, switch it off using the "hessian_to_restart_geometry" keyword.
  #
  trust_radius             0.0002634426
  hessian_file
  
  -----------------------------------------------------------------------
  Completed first pass over input file geometry.in .
  -----------------------------------------------------------------------
  

  Basic array size parameters:
  | Number of species                 :        4
  | Number of atoms                   :       73
  | Number of lattice vectors         :        3
  | Max. basis fn. angular momentum   :        4
  | Max. atomic/ionic basis occupied n:        6
  | Max. number of basis fn. types    :        3
  | Max. radial fns per species/type  :       14
  | Max. logarithmic grid size        :     1483
  | Max. radial integration grid size :      143
  | Max. angular integration grid size:      434
  | Max. angular grid division number :        8
  | Radial grid for Hartree potential :     1483
  | Number of spin channels           :        2

------------------------------------------------------------
          Reading file control.in.
------------------------------------------------------------

  XC: Using HSE-functional with OMEGA =  0.110000E+00 <units>.
  XC: For the actual units (bohr^-1 or Angstrom^-1), see below.
  hse_unit: Unit for the HSE06 hybrid functional screening parameter set to bohr^(-1).
  Spin treatment: Spin density functional theory - collinear spins.
  Initial spin moment per atom:   1.0000
  Charge =   0.000000E+00: Neutral system requested explicitly.
  Scalar relativistic treatment of kinetic energy: on-site free-atom approximation to ZORA.
  Calculating density of states with
  | energy interval :-10.000000  0.000000
  | points & tetrahedron method :  1001
  Calculating angular-momentum projected DOS with 
  | energy interval :-10.000000  0.000000
  | points & tetrahedron :  1001
  Occupation type: Gaussian broadening, width =   0.100000E+00 eV.
  Found k-point grid:         4         4         1
  Using dipole correction.
  Calculating non-self-consistent second-variational spin-orbit coupling after scf-cycle
  You have request a SOC run with spin-polarization.
  symmetry_reduced_k_grid will be turned off.
  Convergence accuracy of self-consistent charge density:  0.1000E-03
  Convergence accuracy of sum of eigenvalues:  0.1000E-02
  Convergence accuracy of total energy:  0.1000E-03
  Convergence accuracy of forces:  0.1000E-01
  Using libMBD for calculating MBD and TS energies
 
  Reading configuration options for species Se                  .
  | Found nuclear charge :  34.0000
  | Found atomic mass :    78.9600000000000      amu
  | Found l_max for Hartree potential  :   6
  | Found cutoff potl. onset [A], width [A], scale factor :    4.00000    2.00000    1.00000
  | Threshold for basis-dependent cutoff potential is   0.100000E-03
  | Found data for basic radial integration grid :    55 points, outermost radius =    7.000 A
  | Found multiplier for basic radial grid :   2
  | Found angular grid specification: user-specified.
  | Specified grid contains     5 separate shells.
  | Check grid settings after all constraints further below.
  | Found free-atom valence shell :  4 s   2.000
  | Found free-atom valence shell :  4 p   4.000
  | Found free-atom valence shell :  3 d  10.000
  | Found free-ion valence shell :  4 s   1.000
  | Found free-ion valence shell :  4 p   3.000
  | Found free-ion valence shell :  3 d  10.000
  | Found hydrogenic basis function :  3 d   4.300
  | Found hydrogenic basis function :  2 p   1.600
  | Found hydrogenic basis function :  4 f   7.200
  | Found ionic basis function :  4 s , default cutoff radius.
  Species Se                  : Missing cutoff potential type.
  Defaulting to exp(1/x)/(1-x)^2 type cutoff potential.
  Species Se: No 'logarithmic' tag. Using default grid for free atom:
  | Default logarithmic grid data [bohr] : 0.1000E-03 0.1000E+03 0.1012E+01
  | Will include ionic basis functions of  2.0-fold positive Se                   ion.
  Species Se: On-site basis accuracy parameter (for Gram-Schmidt orthonormalisation) not specified.
  Using default value basis_acc =  0.1000000E-03.
  Species Se                  : Using default innermost maximum threshold i_radial=  2 for radial functions.
  Species Se                  : Default cutoff onset for free atom density etc. : 0.40000000E+01 AA.
  Species Se                  : Basic radial grid will be enhanced according to radial_multiplier =   2, to contain   111 grid points.
 
  Reading configuration options for species S                   .
  | Found nuclear charge :  16.0000
  | Found atomic mass :    32.0650000000000      amu
  | Found l_max for Hartree potential  :   6
  | Found cutoff potl. onset [A], width [A], scale factor :    4.00000    2.00000    1.00000
  | Threshold for basis-dependent cutoff potential is   0.100000E-03
  | Found data for basic radial integration grid :    44 points, outermost radius =    7.000 A
  | Found multiplier for basic radial grid :   2
  | Found angular grid specification: user-specified.
  | Specified grid contains     5 separate shells.
  | Check grid settings after all constraints further below.
  | Found free-atom valence shell :  3 s   2.000
  | Found free-atom valence shell :  3 p   4.000
  | Found free-ion valence shell :  3 s   1.000
  | Found free-ion valence shell :  3 p   3.000
  | Found ionic basis function :  3 d , default cutoff radius.
  | Found hydrogenic basis function :  2 p   1.800
  | Found hydrogenic basis function :  4 f   7.000
  | Found ionic basis function :  3 s , default cutoff radius.
  | Found hydrogenic extended basis function :  5 g  10.800
  Species S                   : Missing cutoff potential type.
  Defaulting to exp(1/x)/(1-x)^2 type cutoff potential.
  Species S : No 'logarithmic' tag. Using default grid for free atom:
  | Default logarithmic grid data [bohr] : 0.1000E-03 0.1000E+03 0.1012E+01
  | Will include ionic basis functions of  2.0-fold positive S                    ion.
  Species S : On-site basis accuracy parameter (for Gram-Schmidt orthonormalisation) not specified.
  Using default value basis_acc =  0.1000000E-03.
  Species S                   : Using default innermost maximum threshold i_radial=  2 for radial functions.
  Species S                   : Default cutoff onset for free atom density etc. : 0.40000000E+01 AA.
  Species S                   : Basic radial grid will be enhanced according to radial_multiplier =   2, to contain    89 grid points.
 
  Reading configuration options for species Mo                  .
  | Found nuclear charge :  42.0000
  | Found atomic mass :    95.9400000000000      amu
  | Found l_max for Hartree potential  :   6
  | Found cutoff potl. onset [A], width [A], scale factor :    4.00000    2.00000    1.00000
  | Threshold for basis-dependent cutoff potential is   0.100000E-03
  | Found data for basic radial integration grid :    59 points, outermost radius =    7.000 A
  | Found multiplier for basic radial grid :   2
  | Found angular grid specification: user-specified.
  | Specified grid contains     6 separate shells.
  | Check grid settings after all constraints further below.
  | Found free-atom valence shell :  5 s   1.000
  | Found free-atom valence shell :  4 p   6.000
  | Found free-atom valence shell :  4 d   5.000
  | Found free-ion valence shell :  5 s   0.000
  | Found free-ion valence shell :  4 p   6.000
  | Found free-ion valence shell :  4 d   4.000
  | Found hydrogenic basis function :  4 f   8.400
  | Found hydrogenic basis function :  3 d   2.800
  | Found ionic basis function :  5 p , default cutoff radius.
  | Found hydrogenic extended basis function :  5 g  12.000
  | Found ionic basis function :  5 s , default cutoff radius.
  Species Mo                  : Missing cutoff potential type.
  Defaulting to exp(1/x)/(1-x)^2 type cutoff potential.
  Species Mo: No 'logarithmic' tag. Using default grid for free atom:
  | Default logarithmic grid data [bohr] : 0.1000E-03 0.1000E+03 0.1012E+01
  | Will include ionic basis functions of  2.0-fold positive Mo                   ion.
  Species Mo: On-site basis accuracy parameter (for Gram-Schmidt orthonormalisation) not specified.
  Using default value basis_acc =  0.1000000E-03.
  Species Mo                  : Using default innermost maximum threshold i_radial=  2 for radial functions.
  Species Mo                  : Default cutoff onset for free atom density etc. : 0.40000000E+01 AA.
  Species Mo                  : Basic radial grid will be enhanced according to radial_multiplier =   2, to contain   119 grid points.
 
  Reading configuration options for species W                   .
  | Found nuclear charge :  74.0000
  | Found atomic mass :    183.840000000000      amu
  | Found l_max for Hartree potential  :   6
  | Found cutoff potl. onset [A], width [A], scale factor :    4.00000    2.00000    1.00000
  | Threshold for basis-dependent cutoff potential is   0.100000E-03
  | Found data for basic radial integration grid :    71 points, outermost radius =    7.000 A
  | Found multiplier for basic radial grid :   2
  | Found angular grid specification: user-specified.
  | Specified grid contains     6 separate shells.
  | Check grid settings after all constraints further below.
  | Found free-atom valence shell :  6 s   2.000
  | Found free-atom valence shell :  5 p   6.000
  | Found free-atom valence shell :  5 d   4.000
  | Found free-atom valence shell :  4 f  14.000
  | Found free-ion valence shell :  6 s   1.000
  | Found free-ion valence shell :  5 p   6.000
  | Found free-ion valence shell :  5 d   3.000
  | Found free-ion valence shell :  4 f  14.000
  | Found hydrogenic basis function :  4 f   7.800
  | Found hydrogenic basis function :  4 d   5.800
  | Found ionic basis function :  6 p , default cutoff radius.
  | Found hydrogenic extended basis function :  5 g  12.400
  | Found ionic basis function :  6 s , default cutoff radius.
  Species W                   : Missing cutoff potential type.
  Defaulting to exp(1/x)/(1-x)^2 type cutoff potential.
  Species W : No 'logarithmic' tag. Using default grid for free atom:
  | Default logarithmic grid data [bohr] : 0.1000E-03 0.1000E+03 0.1012E+01
  | Will include ionic basis functions of  2.0-fold positive W                    ion.
  Species W : On-site basis accuracy parameter (for Gram-Schmidt orthonormalisation) not specified.
  Using default value basis_acc =  0.1000000E-03.
  Species W                   : Using default innermost maximum threshold i_radial=  2 for radial functions.
  Species W                   : Default cutoff onset for free atom density etc. : 0.40000000E+01 AA.
  Species W                   : Basic radial grid will be enhanced according to radial_multiplier =   2, to contain   143 grid points.
 
  Finished reading input file 'control.in'.
 
------------------------------------------------------------


------------------------------------------------------------
          Reading geometry description geometry.in.
------------------------------------------------------------
  Vacuum level in z-axis :   0.231500E-02
  Found keyword 'hessian_file', indicating that this is the continuation of a structure optimization.
  However, the control.in file does not request the geometry to be optimized.
  Ignoring the request for a file 'hessian.aims' to be present.
  | The smallest distance between any two atoms is         2.36795051 AA.
  | The first atom of this pair is atom number                     37 .
  | The second atom of this pair is atom number                    53 .
  | Wigner-Seitz cell of the first atom image           0     0     0 .
  | (The Wigner-Seitz cell of the second atom is 0 0 0  by definition.)

  Symmetry information by spglib:
  | Precision set to  0.1E-04
  | Number of Operations  : 1
  | Space group           : 1
  | International         : P1  ^
  | Schoenflies           : C1^1
  Input structure read successfully.
  The structure contains       73 atoms,  and a total of       2618.000 electrons.

  Input geometry:
  | Unit cell:
  |       15.72847685        0.00000000        0.00000000
  |       -7.86461685       13.62035640        0.00000000
  |        0.00000000        0.00000000      103.13570646
  | Atomic structure:
  |       Atom                x [A]            y [A]            z [A]
  |    1: Species W             0.00002949        0.90734735       51.60615931
  |    2: Species S             1.58744611        1.83467857       53.15836876
  |    3: Species S             1.56795724        1.82414904       50.03394299
  |    4: Species W            -1.56959960        3.64149733       51.61295779
  |    5: Species S             0.01849476        4.58602966       53.14976713
  |    6: Species S            -0.00680745        4.53501074       50.02404915
  |    7: Species W            -3.13433268        6.37662054       51.60859273
  |    8: Species S            -1.49706853        7.35278534       53.12232866
  |    9: Species S            -1.58610507        7.27548599       49.99094988
  |   10: Species W            -4.70730445        9.07504312       51.58848500
  |   11: Species S            -3.05441735        9.98807380       53.10940530
  |   12: Species S            -3.13674040        9.96260124       49.98561536
  |   13: Species W            -6.29313494       11.79619708       51.58739016
  |   14: Species S            -4.69362068       12.69706379       53.13570415
  |   15: Species S            -4.72485392       12.71514477       50.01436529
  |   16: Species W             3.15145686        0.91233415       51.58746287
  |   17: Species S             4.72458686        1.83289663       53.14399492
  |   18: Species S             4.72635045        1.81756400       50.02094246
  |   19: Species W             1.58231629        3.65943271       51.58770911
  |   20: Species S             3.18361644        4.64228481       53.11820870
  |   21: Species S             3.13833733        4.56319751       49.98777658
  |   22: Species W             0.01739624        6.38655104       51.54786631
  |   23: Species S             1.61592508        7.34131957       53.06712920
  |   24: Species S             1.59398255        7.25688197       49.93631913
  |   25: Species W            -1.49659267        9.11660559       51.50211953
  |   26: Species S             0.00071036        9.98695965       49.87554276
  |   27: Species W            -3.12184399       11.78973426       51.54906123
  |   28: Species S            -1.52776801       12.63210338       53.10939872
  |   29: Species S            -1.54692735       12.71619277       49.98560020
  |   30: Species W             6.30112306        0.89968878       51.58851842
  |   31: Species S             7.85094827        1.80901798       53.17438705
  |   32: Species S             7.87272758        1.82492510       50.04392310
  |   33: Species W             4.71738384        3.66332025       51.56541676
  |   34: Species S             6.23930741        4.61660715       53.13393219
  |   35: Species S             6.31064221        4.55577450       50.00412333
  |   36: Species W             3.20601398        6.41144094       51.49811189
  |   37: Species S             4.72839432        7.25765639       49.89390250
  |   38: Species W             1.53768201        9.09969728       51.45793500
  |   39: Species S             3.09969022        9.91118762       53.06706293
  |   40: Species S             3.16175086        9.97237590       49.93624258
  |   41: Species W             0.00588190       11.71887934       51.50205361
  |   42: Species S             1.53317906       12.60114831       53.12226314
  |   43: Species S             1.55557273       12.71696433       49.99087762
  |   44: Species W             9.42454419        0.88678773       51.60857875
  |   45: Species S            10.99771960        1.79214642       53.18609869
  |   46: Species S            11.00291565        1.81871802       50.05799526
  |   47: Species W             7.85710792        3.64354467       51.61221260
  |   48: Species S             9.42421380        4.54682427       53.19107770
  |   49: Species S             9.44214416        4.53643493       50.05846274
  |   50: Species W             6.22536796        6.39349671       51.52101537
  |   51: Species S             7.77120470        7.26994860       53.13388406
  |   52: Species S             7.85951799        7.23853316       50.00409243
  |   53: Species W             4.70006925        8.99924148       51.49804361
  |   54: Species S             6.22101169        9.90322301       53.11812903
  |   55: Species S             6.26685185        9.98194961       49.98765503
  |   56: Species W             3.12727718       11.77289871       51.54777419
  |   57: Species S             4.68714585       12.67221820       53.14967890
  |   58: Species S             4.71866730       12.71967135       50.02395219
  |   59: Species W            12.57570419        0.89944523       51.61291551
  |   60: Species S            14.15768878        1.81412829       53.17691852
  |   61: Species S            14.14902753        1.81916504       50.04989212
  |   62: Species W            11.00845250        3.63222655       51.63125771
  |   63: Species S            12.59667635        4.56158022       53.18612386
  |   64: Species S            12.57629573        4.54377719       50.05802411
  |   65: Species W             9.42288332        6.35556336       51.61217968
  |   66: Species S            11.00858580        7.27821708       53.17436204
  |   67: Species S            11.00571628        7.25136396       50.04392324
  |   68: Species W             7.83576096        9.06456741       51.56535373
  |   69: Species S             9.42460736        9.97357884       53.14393409
  |   70: Species S             9.43879622        9.97969818       50.02088754
  |   71: Species W             6.27154784       11.78134008       51.58761968
  |   72: Species S             7.85444456       12.68929713       53.15829943
  |   73: Species S             7.85383809       12.71149696       50.03389991

  Lattice parameters for 3D lattice (in Angstroms) :    15.728477   15.727883  103.135706
  Angle(s) between unit vectors (in degrees)       :    90.000000   90.000000  120.002841


  Quantities derived from the lattice vectors:
  | Reciprocal lattice vector 1:  0.399478  0.230665  0.000000
  | Reciprocal lattice vector 2:  0.000000  0.461308  0.000000
  | Reciprocal lattice vector 3:  0.000000  0.000000  0.060922
  | Unit cell volume                               :   0.220945E+05  A^3

  Fractional coordinates:
                         L1                L2                L3
       atom_frac         0.03331198        0.06661700        0.50037141  W
       atom_frac         0.16828200        0.13470122        0.51542158  S
       atom_frac         0.16665636        0.13392814        0.48512726  S
       atom_frac         0.03389143        0.26735698        0.50043733  W
       atom_frac         0.16953602        0.33670409        0.51533818  S
       atom_frac         0.16605435        0.33295830        0.48503133  S
       atom_frac         0.03481789        0.46816841        0.50039501  W
       atom_frac         0.17474992        0.53983795        0.51507214  S
       atom_frac         0.16625130        0.53416267        0.48471040  S
       atom_frac         0.03387321        0.66628529        0.50020004  W
       atom_frac         0.17248079        0.73331956        0.51494683  S
       atom_frac         0.16631164        0.73144938        0.48465868  S
       atom_frac         0.03294549        0.86607110        0.50018943  W
       atom_frac         0.16771312        0.93221230        0.51520182  S
       atom_frac         0.16639112        0.93353980        0.48493744  S
       atom_frac         0.23385949        0.06698313        0.50019013  W
       atom_frac         0.36767269        0.13457039        0.51528221  S
       atom_frac         0.36722193        0.13344467        0.48500121  S
       atom_frac         0.23494536        0.26867379        0.50019252  W
       atom_frac         0.37283634        0.34083431        0.51503219  S
       atom_frac         0.36705412        0.33502776        0.48467964  S
       atom_frac         0.23556607        0.46889750        0.49980621  W
       atom_frac         0.37224986        0.53899614        0.51453692  S
       atom_frac         0.36775494        0.53279678        0.48418071  S
       atom_frac         0.23953271        0.66933679        0.49936265  W
       atom_frac         0.36668169        0.73323776        0.48359142  S
       atom_frac         0.23433557        0.86559661        0.49981779  W
       atom_frac         0.36660990        0.92744294        0.51494677  S
       atom_frac         0.36847882        0.93361674        0.48465853  S
       atom_frac         0.43364772        0.06605472        0.50020037  W
       atom_frac         0.56556684        0.13281723        0.51557689  S
       atom_frac         0.56753552        0.13398512        0.48522403  S
       atom_frac         0.43441237        0.26895921        0.49997638  W
       atom_frac         0.56617129        0.33894907        0.51518464  S
       atom_frac         0.56847342        0.33448277        0.48483813  S
       atom_frac         0.43920877        0.47072490        0.49932379  W
       atom_frac         0.56706597        0.53285363        0.48376944  S
       atom_frac         0.43182797        0.66809539        0.49893424  W
       atom_frac         0.56092986        0.72767462        0.51453628  S
       atom_frac         0.56712192        0.73216703        0.48417996  S
       atom_frac         0.43059190        0.86039447        0.49936201  W
       atom_frac         0.56008529        0.92517023        0.51507150  S
       atom_frac         0.56576084        0.93367339        0.48470970  S
       atom_frac         0.63175793        0.06510753        0.50039487  W
       atom_frac         0.76501586        0.13157853        0.51569045  S
       atom_frac         0.76632171        0.13352940        0.48536047  S
       atom_frac         0.63330673        0.26750729        0.50043011  W
       atom_frac         0.76610245        0.33382565        0.51573872  S
       atom_frac         0.76686103        0.33306287        0.48536501  S
       atom_frac         0.63051736        0.46940745        0.49954586  W
       atom_frac         0.76097592        0.53375612        0.51518418  S
       atom_frac         0.76543747        0.53144961        0.48483783  S
       atom_frac         0.62920134        0.66071997        0.49932313  W
       atom_frac         0.75908780        0.72708986        0.51503142  S
       atom_frac         0.76489244        0.73286993        0.48467846  S
       atom_frac         0.63103006        0.86436055        0.49980531  W
       atom_frac         0.76322026        0.93038815        0.51533732  S
       atom_frac         0.76696644        0.93387214        0.48503039  S
       atom_frac         0.83257004        0.06603684        0.50043692  W
       atom_frac         0.96673036        0.13319242        0.51560144  S
       atom_frac         0.96636460        0.13356222        0.48528191  S
       atom_frac         0.83325040        0.26667632        0.50061477  W
       atom_frac         0.96834599        0.33490902        0.51569069  S
       atom_frac         0.96639663        0.33360193        0.48536075  S
       atom_frac         0.83241943        0.46662240        0.50042979  W
       atom_frac         0.96710875        0.53436319        0.51557665  S
       atom_frac         0.96594049        0.53239165        0.48522403  S
       atom_frac         0.83096353        0.66551617        0.49997576  W
       atom_frac         0.96535191        0.73225535        0.51528162  S
       atom_frac         0.96647867        0.73270463        0.48500068  S
       atom_frac         0.83124937        0.86498031        0.50019165  W
       atom_frac         0.96522077        0.93164208        0.51542091  S
       atom_frac         0.96599720        0.93327198        0.48512685  S

  Initial moments and charges:
  |  Atom   Moment         Charge        Species
  |     1   0.100000E+01   0.000000E+00   W
  |     2   0.100000E+01   0.000000E+00   S
  |     3   0.100000E+01   0.000000E+00   S
  |     4   0.100000E+01   0.000000E+00   W
  |     5   0.100000E+01   0.000000E+00   S
  |     6   0.100000E+01   0.000000E+00   S
  |     7   0.100000E+01   0.000000E+00   W
  |     8   0.100000E+01   0.000000E+00   S
  |     9   0.100000E+01   0.000000E+00   S
  |    10   0.100000E+01   0.000000E+00   W
  |    11   0.100000E+01   0.000000E+00   S
  |    12   0.100000E+01   0.000000E+00   S
  |    13   0.100000E+01   0.000000E+00   W
  |    14   0.100000E+01   0.000000E+00   S
  |    15   0.100000E+01   0.000000E+00   S
  |    16   0.100000E+01   0.000000E+00   W
  |    17   0.100000E+01   0.000000E+00   S
  |    18   0.100000E+01   0.000000E+00   S
  |    19   0.100000E+01   0.000000E+00   W
  |    20   0.100000E+01   0.000000E+00   S
  |    21   0.100000E+01   0.000000E+00   S
  |    22   0.100000E+01   0.000000E+00   W
  |    23   0.100000E+01   0.000000E+00   S
  |    24   0.100000E+01   0.000000E+00   S
  |    25   0.100000E+01   0.000000E+00   W
  |    26   0.100000E+01   0.000000E+00   S
  |    27   0.100000E+01   0.000000E+00   W
  |    28   0.100000E+01   0.000000E+00   S
  |    29   0.100000E+01   0.000000E+00   S
  |    30   0.100000E+01   0.000000E+00   W
  |    31   0.100000E+01   0.000000E+00   S
  |    32   0.100000E+01   0.000000E+00   S
  |    33   0.100000E+01   0.000000E+00   W
  |    34   0.100000E+01   0.000000E+00   S
  |    35   0.100000E+01   0.000000E+00   S
  |    36   0.100000E+01   0.000000E+00   W
  |    37   0.100000E+01   0.000000E+00   S
  |    38   0.100000E+01   0.000000E+00   W
  |    39   0.100000E+01   0.000000E+00   S
  |    40   0.100000E+01   0.000000E+00   S
  |    41   0.100000E+01   0.000000E+00   W
  |    42   0.100000E+01   0.000000E+00   S
  |    43   0.100000E+01   0.000000E+00   S
  |    44   0.100000E+01   0.000000E+00   W
  |    45   0.100000E+01   0.000000E+00   S
  |    46   0.100000E+01   0.000000E+00   S
  |    47   0.100000E+01   0.000000E+00   W
  |    48   0.100000E+01   0.000000E+00   S
  |    49   0.100000E+01   0.000000E+00   S
  |    50   0.100000E+01   0.000000E+00   W
  |    51   0.100000E+01   0.000000E+00   S
  |    52   0.100000E+01   0.000000E+00   S
  |    53   0.100000E+01   0.000000E+00   W
  |    54   0.100000E+01   0.000000E+00   S
  |    55   0.100000E+01   0.000000E+00   S
  |    56   0.100000E+01   0.000000E+00   W
  |    57   0.100000E+01   0.000000E+00   S
  |    58   0.100000E+01   0.000000E+00   S
  |    59   0.100000E+01   0.000000E+00   W
  |    60   0.100000E+01   0.000000E+00   S
  |    61   0.100000E+01   0.000000E+00   S
  |    62   0.100000E+01   0.000000E+00   W
  |    63   0.100000E+01   0.000000E+00   S
  |    64   0.100000E+01   0.000000E+00   S
  |    65   0.100000E+01   0.000000E+00   W
  |    66   0.100000E+01   0.000000E+00   S
  |    67   0.100000E+01   0.000000E+00   S
  |    68   0.100000E+01   0.000000E+00   W
  |    69   0.100000E+01   0.000000E+00   S
  |    70   0.100000E+01   0.000000E+00   S
  |    71   0.100000E+01   0.000000E+00   W
  |    72   0.100000E+01   0.000000E+00   S
  |    73   0.100000E+01   0.000000E+00   S

 
  Finished reading input file 'control.in'.
 

------------------------------------------------------------
          Reading geometry description geometry.in.
------------------------------------------------------------
 
  Consistency checks for stacksize environment parameter are next.
 
  | Maximum stacksize for task 0: unlimited
  | Maximum stacksize for task 1: unlimited
  | Maximum stacksize for task 2: unlimited
  | Maximum stacksize for task 3: unlimited
  | Maximum stacksize for task 4: unlimited
  | Maximum stacksize for task 5: unlimited
  | Maximum stacksize for task 6: unlimited
  | Maximum stacksize for task 7: unlimited
  | Maximum stacksize for task 8: unlimited
  | Maximum stacksize for task 9: unlimited
  | Maximum stacksize for task 10: unlimited
  | Maximum stacksize for task 11: unlimited
  | Maximum stacksize for task 12: unlimited
  | Maximum stacksize for task 13: unlimited
  | Maximum stacksize for task 14: unlimited
  | Maximum stacksize for task 15: unlimited
  | Maximum stacksize for task 16: unlimited
  | Maximum stacksize for task 17: unlimited
  | Maximum stacksize for task 18: unlimited
  | Maximum stacksize for task 19: unlimited
  | Maximum stacksize for task 20: unlimited
  | Maximum stacksize for task 21: unlimited
  | Maximum stacksize for task 22: unlimited
  | Maximum stacksize for task 23: unlimited
  | Maximum stacksize for task 24: unlimited
  | Maximum stacksize for task 25: unlimited
  | Maximum stacksize for task 26: unlimited
  | Maximum stacksize for task 27: unlimited
  | Maximum stacksize for task 28: unlimited
  | Maximum stacksize for task 29: unlimited
  | Maximum stacksize for task 30: unlimited
  | Maximum stacksize for task 31: unlimited
  | Maximum stacksize for task 32: unlimited
  | Maximum stacksize for task 33: unlimited
  | Maximum stacksize for task 34: unlimited
  | Maximum stacksize for task 35: unlimited
  | Maximum stacksize for task 36: unlimited
  | Maximum stacksize for task 37: unlimited
  | Maximum stacksize for task 38: unlimited
  | Maximum stacksize for task 39: unlimited
  | Maximum stacksize for task 40: unlimited
  | Maximum stacksize for task 41: unlimited
  | Maximum stacksize for task 42: unlimited
  | Maximum stacksize for task 43: unlimited
  | Maximum stacksize for task 44: unlimited
  | Maximum stacksize for task 45: unlimited
  | Maximum stacksize for task 46: unlimited
  | Maximum stacksize for task 47: unlimited
  | Maximum stacksize for task 48: unlimited
  | Maximum stacksize for task 49: unlimited
  | Maximum stacksize for task 50: unlimited
  | Maximum stacksize for task 51: unlimited
  | Maximum stacksize for task 52: unlimited
  | Maximum stacksize for task 53: unlimited
  | Maximum stacksize for task 54: unlimited
  | Maximum stacksize for task 55: unlimited
  | Maximum stacksize for task 56: unlimited
  | Maximum stacksize for task 57: unlimited
  | Maximum stacksize for task 58: unlimited
  | Maximum stacksize for task 59: unlimited
  | Maximum stacksize for task 60: unlimited
  | Maximum stacksize for task 61: unlimited
  | Maximum stacksize for task 62: unlimited
  | Maximum stacksize for task 63: unlimited
  | Maximum stacksize for task 64: unlimited
  | Maximum stacksize for task 65: unlimited
  | Maximum stacksize for task 66: unlimited
  | Maximum stacksize for task 67: unlimited
  | Maximum stacksize for task 68: unlimited
  | Maximum stacksize for task 69: unlimited
  | Maximum stacksize for task 70: unlimited
  | Maximum stacksize for task 71: unlimited
  | Maximum stacksize for task 72: unlimited
  | Maximum stacksize for task 73: unlimited
  | Maximum stacksize for task 74: unlimited
  | Maximum stacksize for task 75: unlimited
  | Maximum stacksize for task 76: unlimited
  | Maximum stacksize for task 77: unlimited
  | Maximum stacksize for task 78: unlimited
  | Maximum stacksize for task 79: unlimited
  | Maximum stacksize for task 80: unlimited
  | Maximum stacksize for task 81: unlimited
  | Maximum stacksize for task 82: unlimited
  | Maximum stacksize for task 83: unlimited
  | Maximum stacksize for task 84: unlimited
  | Maximum stacksize for task 85: unlimited
  | Maximum stacksize for task 86: unlimited
  | Maximum stacksize for task 87: unlimited
  | Maximum stacksize for task 88: unlimited
  | Maximum stacksize for task 89: unlimited
  | Maximum stacksize for task 90: unlimited
  | Maximum stacksize for task 91: unlimited
  | Maximum stacksize for task 92: unlimited
  | Maximum stacksize for task 93: unlimited
  | Maximum stacksize for task 94: unlimited
  | Maximum stacksize for task 95: unlimited
  | Maximum stacksize for task 96: unlimited
  | Maximum stacksize for task 97: unlimited
  | Maximum stacksize for task 98: unlimited
  | Maximum stacksize for task 99: unlimited
  | Maximum stacksize for task 100: unlimited
  | Maximum stacksize for task 101: unlimited
  | Maximum stacksize for task 102: unlimited
  | Maximum stacksize for task 103: unlimited
  | Maximum stacksize for task 104: unlimited
  | Maximum stacksize for task 105: unlimited
  | Maximum stacksize for task 106: unlimited
  | Maximum stacksize for task 107: unlimited
  | Maximum stacksize for task 108: unlimited
  | Maximum stacksize for task 109: unlimited
  | Maximum stacksize for task 110: unlimited
  | Maximum stacksize for task 111: unlimited
  | Maximum stacksize for task 112: unlimited
  | Maximum stacksize for task 113: unlimited
  | Maximum stacksize for task 114: unlimited
  | Maximum stacksize for task 115: unlimited
  | Maximum stacksize for task 116: unlimited
  | Maximum stacksize for task 117: unlimited
  | Maximum stacksize for task 118: unlimited
  | Maximum stacksize for task 119: unlimited
  | Maximum stacksize for task 120: unlimited
  | Maximum stacksize for task 121: unlimited
  | Maximum stacksize for task 122: unlimited
  | Maximum stacksize for task 123: unlimited
  | Maximum stacksize for task 124: unlimited
  | Maximum stacksize for task 125: unlimited
  | Maximum stacksize for task 126: unlimited
  | Maximum stacksize for task 127: unlimited
  | Maximum stacksize for task 128: unlimited
  | Maximum stacksize for task 129: unlimited
  | Maximum stacksize for task 130: unlimited
  | Maximum stacksize for task 131: unlimited
  | Maximum stacksize for task 132: unlimited
  | Maximum stacksize for task 133: unlimited
  | Maximum stacksize for task 134: unlimited
  | Maximum stacksize for task 135: unlimited
  | Maximum stacksize for task 136: unlimited
  | Maximum stacksize for task 137: unlimited
  | Maximum stacksize for task 138: unlimited
  | Maximum stacksize for task 139: unlimited
  | Maximum stacksize for task 140: unlimited
  | Maximum stacksize for task 141: unlimited
  | Maximum stacksize for task 142: unlimited
  | Maximum stacksize for task 143: unlimited
  | Maximum stacksize for task 144: unlimited
  | Maximum stacksize for task 145: unlimited
  | Maximum stacksize for task 146: unlimited
  | Maximum stacksize for task 147: unlimited
  | Maximum stacksize for task 148: unlimited
  | Maximum stacksize for task 149: unlimited
  | Maximum stacksize for task 150: unlimited
  | Maximum stacksize for task 151: unlimited
  | Maximum stacksize for task 152: unlimited
  | Maximum stacksize for task 153: unlimited
  | Maximum stacksize for task 154: unlimited
  | Maximum stacksize for task 155: unlimited
  | Maximum stacksize for task 156: unlimited
  | Maximum stacksize for task 157: unlimited
  | Maximum stacksize for task 158: unlimited
  | Maximum stacksize for task 159: unlimited
  | Maximum stacksize for task 160: unlimited
  | Maximum stacksize for task 161: unlimited
  | Maximum stacksize for task 162: unlimited
  | Maximum stacksize for task 163: unlimited
  | Maximum stacksize for task 164: unlimited
  | Maximum stacksize for task 165: unlimited
  | Maximum stacksize for task 166: unlimited
  | Maximum stacksize for task 167: unlimited
  | Maximum stacksize for task 168: unlimited
  | Maximum stacksize for task 169: unlimited
  | Maximum stacksize for task 170: unlimited
  | Maximum stacksize for task 171: unlimited
  | Maximum stacksize for task 172: unlimited
  | Maximum stacksize for task 173: unlimited
  | Maximum stacksize for task 174: unlimited
  | Maximum stacksize for task 175: unlimited
  | Maximum stacksize for task 176: unlimited
  | Maximum stacksize for task 177: unlimited
  | Maximum stacksize for task 178: unlimited
  | Maximum stacksize for task 179: unlimited
  | Maximum stacksize for task 180: unlimited
  | Maximum stacksize for task 181: unlimited
  | Maximum stacksize for task 182: unlimited
  | Maximum stacksize for task 183: unlimited
  | Maximum stacksize for task 184: unlimited
  | Maximum stacksize for task 185: unlimited
  | Maximum stacksize for task 186: unlimited
  | Maximum stacksize for task 187: unlimited
  | Maximum stacksize for task 188: unlimited
  | Maximum stacksize for task 189: unlimited
  | Maximum stacksize for task 190: unlimited
  | Maximum stacksize for task 191: unlimited
  | Maximum stacksize for task 192: unlimited
  | Maximum stacksize for task 193: unlimited
  | Maximum stacksize for task 194: unlimited
  | Maximum stacksize for task 195: unlimited
  | Maximum stacksize for task 196: unlimited
  | Maximum stacksize for task 197: unlimited
  | Maximum stacksize for task 198: unlimited
  | Maximum stacksize for task 199: unlimited
  | Maximum stacksize for task 200: unlimited
  | Maximum stacksize for task 201: unlimited
  | Maximum stacksize for task 202: unlimited
  | Maximum stacksize for task 203: unlimited
  | Maximum stacksize for task 204: unlimited
  | Maximum stacksize for task 205: unlimited
  | Maximum stacksize for task 206: unlimited
  | Maximum stacksize for task 207: unlimited
  | Maximum stacksize for task 208: unlimited
  | Maximum stacksize for task 209: unlimited
  | Maximum stacksize for task 210: unlimited
  | Maximum stacksize for task 211: unlimited
  | Maximum stacksize for task 212: unlimited
  | Maximum stacksize for task 213: unlimited
  | Maximum stacksize for task 214: unlimited
  | Maximum stacksize for task 215: unlimited
  | Maximum stacksize for task 216: unlimited
  | Maximum stacksize for task 217: unlimited
  | Maximum stacksize for task 218: unlimited
  | Maximum stacksize for task 219: unlimited
  | Maximum stacksize for task 220: unlimited
  | Maximum stacksize for task 221: unlimited
  | Maximum stacksize for task 222: unlimited
  | Maximum stacksize for task 223: unlimited
  | Maximum stacksize for task 224: unlimited
  | Maximum stacksize for task 225: unlimited
  | Maximum stacksize for task 226: unlimited
  | Maximum stacksize for task 227: unlimited
  | Maximum stacksize for task 228: unlimited
  | Maximum stacksize for task 229: unlimited
  | Maximum stacksize for task 230: unlimited
  | Maximum stacksize for task 231: unlimited
  | Maximum stacksize for task 232: unlimited
  | Maximum stacksize for task 233: unlimited
  | Maximum stacksize for task 234: unlimited
  | Maximum stacksize for task 235: unlimited
  | Maximum stacksize for task 236: unlimited
  | Maximum stacksize for task 237: unlimited
  | Maximum stacksize for task 238: unlimited
  | Maximum stacksize for task 239: unlimited
  | Maximum stacksize for task 240: unlimited
  | Maximum stacksize for task 241: unlimited
  | Maximum stacksize for task 242: unlimited
  | Maximum stacksize for task 243: unlimited
  | Maximum stacksize for task 244: unlimited
  | Maximum stacksize for task 245: unlimited
  | Maximum stacksize for task 246: unlimited
  | Maximum stacksize for task 247: unlimited
  | Maximum stacksize for task 248: unlimited
  | Maximum stacksize for task 249: unlimited
  | Maximum stacksize for task 250: unlimited
  | Maximum stacksize for task 251: unlimited
  | Maximum stacksize for task 252: unlimited
  | Maximum stacksize for task 253: unlimited
  | Maximum stacksize for task 254: unlimited
  | Maximum stacksize for task 255: unlimited
  | Maximum stacksize for task 256: unlimited
  | Maximum stacksize for task 257: unlimited
  | Maximum stacksize for task 258: unlimited
  | Maximum stacksize for task 259: unlimited
  | Maximum stacksize for task 260: unlimited
  | Maximum stacksize for task 261: unlimited
  | Maximum stacksize for task 262: unlimited
  | Maximum stacksize for task 263: unlimited
  | Maximum stacksize for task 264: unlimited
  | Maximum stacksize for task 265: unlimited
  | Maximum stacksize for task 266: unlimited
  | Maximum stacksize for task 267: unlimited
  | Maximum stacksize for task 268: unlimited
  | Maximum stacksize for task 269: unlimited
  | Maximum stacksize for task 270: unlimited
  | Maximum stacksize for task 271: unlimited
  | Maximum stacksize for task 272: unlimited
  | Maximum stacksize for task 273: unlimited
  | Maximum stacksize for task 274: unlimited
  | Maximum stacksize for task 275: unlimited
  | Maximum stacksize for task 276: unlimited
  | Maximum stacksize for task 277: unlimited
  | Maximum stacksize for task 278: unlimited
  | Maximum stacksize for task 279: unlimited
  | Maximum stacksize for task 280: unlimited
  | Maximum stacksize for task 281: unlimited
  | Maximum stacksize for task 282: unlimited
  | Maximum stacksize for task 283: unlimited
  | Maximum stacksize for task 284: unlimited
  | Maximum stacksize for task 285: unlimited
  | Maximum stacksize for task 286: unlimited
  | Maximum stacksize for task 287: unlimited
  | Current stacksize for task 0: unlimited
  | Current stacksize for task 1: unlimited
  | Current stacksize for task 2: unlimited
  | Current stacksize for task 3: unlimited
  | Current stacksize for task 4: unlimited
  | Current stacksize for task 5: unlimited
  | Current stacksize for task 6: unlimited
  | Current stacksize for task 7: unlimited
  | Current stacksize for task 8: unlimited
  | Current stacksize for task 9: unlimited
  | Current stacksize for task 10: unlimited
  | Current stacksize for task 11: unlimited
  | Current stacksize for task 12: unlimited
  | Current stacksize for task 13: unlimited
  | Current stacksize for task 14: unlimited
  | Current stacksize for task 15: unlimited
  | Current stacksize for task 16: unlimited
  | Current stacksize for task 17: unlimited
  | Current stacksize for task 18: unlimited
  | Current stacksize for task 19: unlimited
  | Current stacksize for task 20: unlimited
  | Current stacksize for task 21: unlimited
  | Current stacksize for task 22: unlimited
  | Current stacksize for task 23: unlimited
  | Current stacksize for task 24: unlimited
  | Current stacksize for task 25: unlimited
  | Current stacksize for task 26: unlimited
  | Current stacksize for task 27: unlimited
  | Current stacksize for task 28: unlimited
  | Current stacksize for task 29: unlimited
  | Current stacksize for task 30: unlimited
  | Current stacksize for task 31: unlimited
  | Current stacksize for task 32: unlimited
  | Current stacksize for task 33: unlimited
  | Current stacksize for task 34: unlimited
  | Current stacksize for task 35: unlimited
  | Current stacksize for task 36: unlimited
  | Current stacksize for task 37: unlimited
  | Current stacksize for task 38: unlimited
  | Current stacksize for task 39: unlimited
  | Current stacksize for task 40: unlimited
  | Current stacksize for task 41: unlimited
  | Current stacksize for task 42: unlimited
  | Current stacksize for task 43: unlimited
  | Current stacksize for task 44: unlimited
  | Current stacksize for task 45: unlimited
  | Current stacksize for task 46: unlimited
  | Current stacksize for task 47: unlimited
  | Current stacksize for task 48: unlimited
  | Current stacksize for task 49: unlimited
  | Current stacksize for task 50: unlimited
  | Current stacksize for task 51: unlimited
  | Current stacksize for task 52: unlimited
  | Current stacksize for task 53: unlimited
  | Current stacksize for task 54: unlimited
  | Current stacksize for task 55: unlimited
  | Current stacksize for task 56: unlimited
  | Current stacksize for task 57: unlimited
  | Current stacksize for task 58: unlimited
  | Current stacksize for task 59: unlimited
  | Current stacksize for task 60: unlimited
  | Current stacksize for task 61: unlimited
  | Current stacksize for task 62: unlimited
  | Current stacksize for task 63: unlimited
  | Current stacksize for task 64: unlimited
  | Current stacksize for task 65: unlimited
  | Current stacksize for task 66: unlimited
  | Current stacksize for task 67: unlimited
  | Current stacksize for task 68: unlimited
  | Current stacksize for task 69: unlimited
  | Current stacksize for task 70: unlimited
  | Current stacksize for task 71: unlimited
  | Current stacksize for task 72: unlimited
  | Current stacksize for task 73: unlimited
  | Current stacksize for task 74: unlimited
  | Current stacksize for task 75: unlimited
  | Current stacksize for task 76: unlimited
  | Current stacksize for task 77: unlimited
  | Current stacksize for task 78: unlimited
  | Current stacksize for task 79: unlimited
  | Current stacksize for task 80: unlimited
  | Current stacksize for task 81: unlimited
  | Current stacksize for task 82: unlimited
  | Current stacksize for task 83: unlimited
  | Current stacksize for task 84: unlimited
  | Current stacksize for task 85: unlimited
  | Current stacksize for task 86: unlimited
  | Current stacksize for task 87: unlimited
  | Current stacksize for task 88: unlimited
  | Current stacksize for task 89: unlimited
  | Current stacksize for task 90: unlimited
  | Current stacksize for task 91: unlimited
  | Current stacksize for task 92: unlimited
  | Current stacksize for task 93: unlimited
  | Current stacksize for task 94: unlimited
  | Current stacksize for task 95: unlimited
  | Current stacksize for task 96: unlimited
  | Current stacksize for task 97: unlimited
  | Current stacksize for task 98: unlimited
  | Current stacksize for task 99: unlimited
  | Current stacksize for task 100: unlimited
  | Current stacksize for task 101: unlimited
  | Current stacksize for task 102: unlimited
  | Current stacksize for task 103: unlimited
  | Current stacksize for task 104: unlimited
  | Current stacksize for task 105: unlimited
  | Current stacksize for task 106: unlimited
  | Current stacksize for task 107: unlimited
  | Current stacksize for task 108: unlimited
  | Current stacksize for task 109: unlimited
  | Current stacksize for task 110: unlimited
  | Current stacksize for task 111: unlimited
  | Current stacksize for task 112: unlimited
  | Current stacksize for task 113: unlimited
  | Current stacksize for task 114: unlimited
  | Current stacksize for task 115: unlimited
  | Current stacksize for task 116: unlimited
  | Current stacksize for task 117: unlimited
  | Current stacksize for task 118: unlimited
  | Current stacksize for task 119: unlimited
  | Current stacksize for task 120: unlimited
  | Current stacksize for task 121: unlimited
  | Current stacksize for task 122: unlimited
  | Current stacksize for task 123: unlimited
  | Current stacksize for task 124: unlimited
[...]
  |    30       73.521756        0.478244       10.272608       24.718670       24.390772       14.139705
  |    31       16.244856       -0.244856        5.863638       10.091147        0.244675        0.045396
  |    32       16.239309       -0.239309        5.859135       10.078576        0.254012        0.047586
  |    33       73.545659        0.454341       10.277723       24.725785       24.399903       14.142248
  |    34       16.255474       -0.255474        5.865139       10.097245        0.247962        0.045129
  |    35       16.219724       -0.219724        5.857000       10.062720        0.252886        0.047117
  |    36       73.578459        0.421541       10.350643       24.722587       24.382633       14.122596
  |    37       16.238276       -0.238276        5.850410       10.060342        0.273633        0.053891
  |    38       73.592478        0.407522       10.355641       24.730802       24.379939       14.126095
  |    39       16.269584       -0.269584        5.866778       10.105337        0.252740        0.044729
  |    40       16.204486       -0.204486        5.854393       10.051044        0.252358        0.046691
  |    41       73.579289        0.420711       10.358099       24.726627       24.369778       14.124785
  |    42       16.256778       -0.256778        5.865407       10.102623        0.244386        0.044363
  |    43       16.221335       -0.221335        5.857201       10.065912        0.251452        0.046770
  |    44       73.518539        0.481461       10.270807       24.716681       24.392663       14.138388
  |    45       16.243546       -0.243546        5.863442       10.092102        0.242849        0.045153
  |    46       16.238766       -0.238766        5.859910       10.081417        0.250543        0.046896
  |    47       73.518265        0.481735       10.269814       24.716123       24.393470       14.138857
  |    48       16.244357       -0.244357        5.863790       10.089155        0.245727        0.045685
  |    49       16.238238       -0.238238        5.859134       10.075399        0.255691        0.048015
  |    50       73.572078        0.427922       10.354880       24.724352       24.368084       14.124761
  |    51       16.255656       -0.255656        5.865209       10.097330        0.247983        0.045134
  |    52       16.219726       -0.219726        5.857004       10.062722        0.252883        0.047117
  |    53       73.578561        0.421439       10.350670       24.722609       24.382688       14.122594
  |    54       16.255804       -0.255804        5.864990       10.101092        0.245200        0.044522
  |    55       16.221487       -0.221487        5.857323       10.066510        0.250950        0.046703
  |    56       73.548456        0.451544       10.274626       24.723556       24.409507       14.140766
  |    57       16.238713       -0.238713        5.862789       10.084975        0.245535        0.045414
  |    58       16.242305       -0.242305        5.860830       10.083868        0.251010        0.046597
  |    59       73.520605        0.479395       10.275562       24.721330       24.381832       14.141880
  |    60       16.239991       -0.239991        5.862926       10.087528        0.244091        0.045445
  |    61       16.238904       -0.238904        5.861147       10.081543        0.249542        0.046671
  |    62       73.515561        0.484439       10.272826       24.719107       24.382869       14.140759
  |    63       16.243531       -0.243531        5.863433       10.092097        0.242846        0.045154
  |    64       16.238802       -0.238802        5.859916       10.081440        0.250548        0.046898
  |    65       73.518098        0.481902       10.269688       24.716170       24.393385       14.138856
  |    66       16.245005       -0.245005        5.863681       10.091238        0.244685        0.045401
  |    67       16.239457       -0.239457        5.859169       10.078675        0.254022        0.047591
  |    68       73.545785        0.454215       10.277670       24.725926       24.399941       14.142249
  |    69       16.238014       -0.238014        5.862429       10.087573        0.243048        0.044965
  |    70       16.243366       -0.243366        5.861793       10.090358        0.245694        0.045521
  |    71       73.522975        0.477025       10.273326       24.719038       24.391123       14.139488
  |    72       16.240682       -0.240682        5.862755       10.090089        0.242745        0.045092
  |    73       16.240259       -0.240259        5.861232       10.085329        0.247526        0.046172
  |
  | Total     2618.000000       -0.000000
 
  Summary of the per-atom spin analysis:
  |
  |  atom   spin      l=0         l=1         l=2         l=3
  |     1    0.000001    0.000000    0.000000    0.000001    0.000000
  |     2   -0.000000   -0.000000   -0.000000    0.000000    0.000000
  |     3   -0.000000   -0.000000   -0.000000    0.000000    0.000000
  |     4    0.000001    0.000000    0.000000    0.000001    0.000000
  |     5   -0.000000   -0.000000   -0.000000    0.000000    0.000000
  |     6   -0.000000   -0.000000   -0.000000    0.000000    0.000000
  |     7    0.000001    0.000000    0.000000    0.000001    0.000000
  |     8   -0.000000   -0.000000   -0.000000   -0.000000    0.000000
  |     9   -0.000000   -0.000000   -0.000000    0.000000   -0.000000
  |    10    0.000001    0.000000    0.000000    0.000001    0.000000
  |    11   -0.000000   -0.000000   -0.000000   -0.000000   -0.000000
  |    12   -0.000000   -0.000000   -0.000000    0.000000    0.000000
  |    13    0.000001    0.000000    0.000000    0.000001    0.000000
  |    14   -0.000000   -0.000000   -0.000000    0.000000    0.000000
  |    15   -0.000000   -0.000000   -0.000000    0.000000    0.000000
  |    16    0.000001    0.000000    0.000000    0.000001    0.000000
  |    17   -0.000000   -0.000000   -0.000000    0.000000    0.000000
  |    18   -0.000000   -0.000000   -0.000000    0.000000    0.000000
  |    19    0.000001    0.000000    0.000000    0.000001    0.000000
  |    20   -0.000000   -0.000000   -0.000000    0.000000    0.000000
  |    21   -0.000001   -0.000000   -0.000001    0.000000    0.000000
  |    22    0.000001    0.000000    0.000000    0.000001   -0.000000
  |    23   -0.000001   -0.000000   -0.000001    0.000000    0.000000
  |    24   -0.000001   -0.000000   -0.000001    0.000000    0.000000
  |    25   -0.000001   -0.000000   -0.000000   -0.000001   -0.000000
  |    26   -0.000000   -0.000000   -0.000000   -0.000000   -0.000000
  |    27    0.000001    0.000000    0.000000    0.000001    0.000000
  |    28   -0.000000   -0.000000   -0.000000   -0.000000   -0.000000
  |    29   -0.000000   -0.000000   -0.000000    0.000000    0.000000
  |    30    0.000001    0.000000    0.000000    0.000001    0.000000
  |    31   -0.000000   -0.000000   -0.000000    0.000000    0.000000
  |    32   -0.000000   -0.000000   -0.000000    0.000000    0.000000
  |    33    0.000001    0.000000    0.000000    0.000001    0.000000
  |    34   -0.000000   -0.000000   -0.000000    0.000000    0.000000
  |    35   -0.000001   -0.000000   -0.000000    0.000000    0.000000
  |    36    0.000001    0.000000    0.000000    0.000001   -0.000000
  |    37   -0.000000   -0.000000   -0.000000   -0.000000   -0.000000
  |    38    0.000005    0.000000    0.000001    0.000004   -0.000000
  |    39   -0.000001   -0.000000   -0.000001    0.000000    0.000000
  |    40   -0.000001   -0.000000   -0.000001    0.000000    0.000000
  |    41   -0.000001   -0.000000   -0.000000   -0.000001   -0.000000
  |    42   -0.000000   -0.000000   -0.000000   -0.000000    0.000000
  |    43   -0.000000   -0.000000   -0.000000    0.000000   -0.000000
  |    44    0.000001    0.000000    0.000000    0.000001    0.000000
  |    45   -0.000000   -0.000000   -0.000000    0.000000    0.000000
  |    46   -0.000000   -0.000000   -0.000000    0.000000    0.000000
  |    47    0.000001    0.000000    0.000000    0.000001    0.000000
  |    48   -0.000000   -0.000000   -0.000000    0.000000    0.000000
  |    49   -0.000000   -0.000000   -0.000000    0.000000    0.000000
  |    50    0.000000    0.000000    0.000000    0.000000   -0.000000
  |    51   -0.000000   -0.000000   -0.000000    0.000000    0.000000
  |    52   -0.000001   -0.000000   -0.000000    0.000000    0.000000
  |    53    0.000001    0.000000    0.000000    0.000001   -0.000000
  |    54   -0.000000   -0.000000   -0.000000    0.000000    0.000000
  |    55   -0.000001   -0.000000   -0.000001    0.000000    0.000000
  |    56    0.000001    0.000000    0.000000    0.000001   -0.000000
  |    57   -0.000000   -0.000000   -0.000000    0.000000    0.000000
  |    58   -0.000000   -0.000000   -0.000000    0.000000    0.000000
  |    59    0.000001    0.000000    0.000000    0.000001    0.000000
  |    60   -0.000000   -0.000000   -0.000000    0.000000    0.000000
  |    61   -0.000000   -0.000000   -0.000000    0.000000    0.000000
  |    62    0.000001    0.000000    0.000000    0.000001    0.000000
  |    63   -0.000000   -0.000000   -0.000000    0.000000    0.000000
  |    64   -0.000000   -0.000000   -0.000000    0.000000    0.000000
  |    65    0.000001    0.000000    0.000000    0.000001    0.000000
  |    66   -0.000000   -0.000000   -0.000000    0.000000    0.000000
  |    67   -0.000000   -0.000000   -0.000000    0.000000    0.000000
  |    68    0.000001    0.000000    0.000000    0.000001    0.000000
  |    69   -0.000000   -0.000000   -0.000000    0.000000    0.000000
  |    70   -0.000000   -0.000000   -0.000000    0.000000    0.000000
  |    71    0.000001    0.000000    0.000000    0.000001    0.000000
  |    72   -0.000000   -0.000000   -0.000000    0.000000    0.000000
  |    73   -0.000000   -0.000000   -0.000000    0.000000    0.000000
  |
  | Total    0.000000
 
  Calculating angular momentum projected density of states ...
  | Chemical potential is  -4.991491 eV.
  | writing   projected DOS (shifted by the chemical potential) for species Se to file Se_l_proj_dos_tetrahedron.dat.
  | writing   projected DOS (raw data) for species Se to file Se_l_proj_dos_tetrahedron_raw.dat.
  | writing   projected DOS (shifted by the chemical potential) for species S to file S_l_proj_dos_tetrahedron.dat.
  | writing   projected DOS (raw data) for species S to file S_l_proj_dos_tetrahedron_raw.dat.
  | writing   projected DOS (shifted by the chemical potential) for species Mo to file Mo_l_proj_dos_tetrahedron.dat.
  | writing   projected DOS (raw data) for species Mo to file Mo_l_proj_dos_tetrahedron_raw.dat.
  | writing   projected DOS (shifted by the chemical potential) for species W to file W_l_proj_dos_tetrahedron.dat.
  | writing   projected DOS (raw data) for species W to file W_l_proj_dos_tetrahedron_raw.dat.

  Mulliken analysis                                       :  max(cpu_time)    wall_clock(cpu1)
  | Time for Mulliken analysis (scalar relativistic)      :          0.660               0.709
  | Time for Mulliken analysis (spin-orbit coupled)       :          1.724               1.733
  | Total time for Mulliken analysis                      :          2.384               2.442
------------------------------------------------------------

------------------------------------------------------------------------------
  Final output of selected total energy values:

  The following output summarizes some interesting total energy values
  at the end of a run (AFTER all relaxation, molecular dynamics, etc.).

  | Total energy of the DFT / Hartree-Fock s.c.f. calculation      :      -11839574.032455325 eV
  | Final zero-broadening corrected energy (caution - metals only) :      -11839574.032455325 eV
  | Total energy after non-SC SOC correction (DO NOT USE)          :      -11839604.166319270 eV
  | For reference only, the value of 1 Hartree used in FHI-aims is :             27.211384500 eV
  | For reference only, the overall average (free atom contribution
  | + realspace contribution) of the electrostatic potential after
  | s.c.f. convergence is                                          :             -1.191230444 eV

  Before relying on these values, please be sure to understand exactly which
  total energy value is referred to by a given number. Different objects may
  all carry the same name 'total energy'. Definitions:

  Total energy of the DFT / Hartree-Fock s.c.f. calculation:
  | Note that this energy does not include ANY quantities calculated after the
  | s.c.f. cycle, in particular not ANY RPA, MP2, etc. many-body perturbation terms.

  Final zero-broadening corrected energy:
  | For metallic systems only, a broadening of the occupation numbers at the Fermi
  | level can be extrapolated back to zero broadening by an electron-gas inspired
  | formula. For all systems that are not real metals, this value can be
  | meaningless and should be avoided.

------------------------------------------------------------------------------
  Methods described in the following list of references were used in this FHI-aims run.
  If you publish the results, please make sure to cite these reference if they apply.
  FHI-aims is an academic code, and for our developers (often, Ph.D. students
  and postdocs), scientific credit in the community is essential.
  Thank you for helping us!

  For any use of FHI-aims, please cite:

    Volker Blum, Ralf Gehrke, Felix Hanke, Paula Havu, Ville Havu,
    Xinguo Ren, Karsten Reuter, and Matthias Scheffler
    'Ab initio molecular simulations with numeric atom-centered orbitals'
    Computer Physics Communications 180, 2175-2196 (2009)
    http://doi.org/10.1016/j.cpc.2009.06.022


  For Hartree-Fock, hybrid functionals, or many-body perturbation theory used in your run, please cite:

    Xinguo Ren, Patrick Rinke, Volker Blum, Juergen Wieferink, Alex Tkatchenko,
    Andrea Sanfilippo, Karsten Reuter, and Matthias Scheffler,
    'Resolution-of-identity approach to Hartree-Fock, hybrid density functionals,
    RPA, MP2, and GW with numeric atom-centered orbital basis functions'
    New Journal of Physics 14, 053020 (2012).
    http://doi.org/10.1088/1367-2630/14/5/053020


  The provided symmetry information was generated with SPGlib:

    Atsushi Togo, Yusuke Seto, Dimitar Pashov
    SPGlib 1.7.3 obtained from http://spglib.sourceforge.net
    Copyright (C) 2008 Atsushi Togo


  For second-variational spin-orbit coupling used in your run, please cite:

    William P. Huhn and Volker Blum,
    'One-hundred-three compound band-structure benchmark of post-self-consistent'
    'spin-orbit coupling treatments in density functional theory'
    Phys. Rev. Materials 1, 033803 (2017).


  The ELSI infrastructure was used in your run to solve the Kohn-Sham electronic structure.
  Please check out http://elsi-interchange.org to learn more.
  If scalability is important for your project, please acknowledge ELSI by citing:

    V. W-z. Yu, F. Corsetti, A. Garcia, W. P. Huhn, M. Jacquelin, W. Jia,
    B. Lange, L. Lin, J. Lu, W. Mi, A. Seifitokaldani, A. Vazquez-Mayagoitia,
    C. Yang, H. Yang, and V. Blum
    'ELSI: A unified software interface for Kohn-Sham electronic structure solvers'
    Computer Physics Communications 222, 267-285 (2018).
    http://doi.org/10.1016/j.cpc.2017.09.007


  For the real-space grid partitioning and parallelization used in this calculation, please cite:

    Ville Havu, Volker Blum, Paula Havu, and Matthias Scheffler,
    'Efficient O(N) integration for all-electron electronic structure calculation'
    'using numerically tabulated basis functions'
    Journal of Computational Physics 228, 8367-8379 (2009).
    http://doi.org/10.1016/j.jcp.2009.08.008


  The high-level electronic structure method used in your calculation
  employed our efficient localized resolution of identity for the Coulomb operator.
  Some calculations, especially large-scale hybrid density functional theory,
  are only possible thanks to this development. For this feature, please cite:

    Arvid Ihrig, Juergen Wieferink, Igor Ying Zhang, Matti Ropo, Xinguo Ren,
    Patrick Rinke, Matthias Scheffler, and Volker Blum,
    'Accurate localized resolution of identity approach for linear-scaling
    hybrid density functionals and for many-body perturbation theory'
    New Journal of Physics 117, 093020 (2015).
    http://doi.org/10.1088/1367-2630/17/9/093020

  Of course, there are many other important community references, e.g., those cited in the
  above references. Our list is limited to references that describe implementations in the
  FHI-aims code. The reason is purely practical (length of this list) - please credit others as well.

------------------------------------------------------------
          Leaving FHI-aims.
          Date     :  20221005, Time     :  090524.625

          Computational steps:
          | Number of self-consistency cycles          :           30
          | Number of SCF (re)initializations          :            1

          Detailed time accounting                     :  max(cpu_time)    wall_clock(cpu1)
          | Total time                                  :     4795.030 s        4795.396 s
          | Preparation time                            :        1.525 s           1.526 s
          | Boundary condition initalization            :        0.862 s           0.864 s
          | Grid partitioning                           :        2.113 s           2.114 s
          | Preloading free-atom quantities on grid     :        1.267 s           1.272 s
          | Free-atom superposition energy              :        0.045 s           0.046 s
          | Total time for integrations                 :       45.960 s          45.965 s
          | Product basis setup: Total time             :      470.728 s         470.735 s
          | Total time evaluating exchange matrix       :     3938.631 s        3937.869 s
          | Total time for solution of K.-S. equations  :      121.116 s         121.116 s
          | Total time for density & force components   :      152.494 s         152.496 s
          | Total time for mixing                       :        0.196 s           0.196 s
          | Total time for Hartree multipole update     :        0.403 s           0.402 s
          | Total time for Hartree multipole sum        :       34.097 s          34.102 s
          | Total time for total energy evaluation      :        0.073 s           0.100 s
          | Total time NSC force correction             :        3.358 s           3.357 s
          | Total time for scaled ZORA corrections      :        0.000 s           0.000 s
          | Total time for vdW correction               :        5.388 s           5.391 s
          | Total time for perturbative SOC             :       14.020 s          14.020 s
          | Total time for Mulliken analysis            :        2.419 s           2.442 s

          Partial memory accounting:
          | Residual value for overall tracked memory usage across tasks:     0.000000 MB (should be 0.000000 MB)
          | Peak values for overall tracked memory usage:
          |   Minimum:      640.485 MB (on task 143 after allocating potential_shell)
          |   Maximum:     1515.163 MB (on task 286 after allocating potential_shell)
          |   Average:      914.660 MB
          | Largest tracked array allocation:
          |   Minimum:      131.973 MB (ovlp3fn for atom on task   0)
          |   Maximum:      309.970 MB (ovlp3fn for atom on task 286)
          |   Average:      167.178 MB
          Note:  These values currently only include a subset of arrays which are explicitly tracked.
          The "true" memory usage will be greater.

          Have a nice day.
------------------------------------------------------------
