------------------------------------------------------------
          Invoking FHI-aims ...

          When using FHI-aims, please cite the following reference:

            Volker Blum, Ralf Gehrke, Felix Hanke, Paula Havu,
            Ville Havu, Xinguo Ren, Karsten Reuter, and Matthias Scheffler,
            'Ab Initio Molecular Simulations with Numeric Atom-Centered Orbitals',
            Computer Physics Communications 180, 2175-2196 (2009)

          In addition, many other developments in FHI-aims are likely important for
          your particular application. A partial list of references is given at the end of
          this file. Thank you for giving credit to the authors of these developments.

          For any questions about FHI-aims, please visit our slack channel at

            https://fhi-aims.slack.com

          and our main development and support site at

            https://aims-git.rz-berlin.mpg.de .

          The latter site, in particular, has a wiki to collect information, as well
          as an issue tracker to log discussions, suggest improvements, and report issues
          or bugs. https://aims-git.rz-berlin.mpg.de is also the main development site
          of the project and all new and updated code versions can be obtained there.
          Please send an email to aims-coordinators@fhi-berlin.mpg.de and we will add
          you to these sites. They are for you and everyone is welcome there.

------------------------------------------------------------



  Date     :  20221005, Time     :  041753.552
  Time zero on CPU 1             :   0.304385000000000E+00  s.
  Internal wall clock time zero  :           434175473.552  s.

  FHI-aims created a unique identifier for this run for later identification
  aims_uuid : F262E497-A93E-48BC-AD47-5D4A699644DD

  Build configuration of the current instance of FHI-aims
  -------------------------------------------------------
  FHI-aims version      : 220117
  Commit number         : 0c0e6afe2
  CMake host system     : Linux-5.3.18-24.99-default
  CMake version         : 3.22.0
  Fortran compiler      : /mpcdf/soft/SLE_15/packages/x86_64/intel_oneapi/2021.4/mpi/2021.4.0/bin/mpiifort (Intel) version 2021.4.0.20210910
  Fortran compiler flags: -O3 -ip -fp-model precise
  C compiler            : /mpcdf/soft/SLE_15/packages/x86_64/intel/2021.4.0/bin/icc (Intel) version 2021.4.0.20210910
  C compiler flags      : -O3 -ip -fp-model precise
  C++ compiler          : /mpcdf/soft/SLE_15/packages/x86_64/intel/2021.4.0/bin/icpc (Intel) version 2021.4.0.20210910
  C++ compiler flags    : -O3 -ip -fp-model precise
  Using MPI
  Using ScaLAPACK
  Using LibXC
  Using i-PI
  Using RLSY
  Linking against: /mpcdf/soft/SLE_15/packages/x86_64/intel_oneapi/2021.4/mkl/latest/lib/intel64/libmkl_intel_lp64.so
                   /mpcdf/soft/SLE_15/packages/x86_64/intel_oneapi/2021.4/mkl/latest/lib/intel64/libmkl_sequential.so
                   /mpcdf/soft/SLE_15/packages/x86_64/intel_oneapi/2021.4/mkl/latest/lib/intel64/libmkl_core.so
                   /mpcdf/soft/SLE_15/packages/x86_64/intel_oneapi/2021.4/mkl/latest/lib/intel64/libmkl_blacs_intelmpi_lp64.so
                   /mpcdf/soft/SLE_15/packages/x86_64/intel_oneapi/2021.4/mkl/latest/lib/intel64/libmkl_scalapack_lp64.so

  Using      288 parallel tasks.
  Task        0 on host ravc3303 reporting.
  Task        1 on host ravc3303 reporting.
  Task        2 on host ravc3303 reporting.
  Task        3 on host ravc3303 reporting.
  Task        4 on host ravc3303 reporting.
  Task        5 on host ravc3303 reporting.
  Task        6 on host ravc3303 reporting.
  Task        7 on host ravc3303 reporting.
  Task        8 on host ravc3303 reporting.
  Task        9 on host ravc3303 reporting.
  Task       10 on host ravc3303 reporting.
  Task       11 on host ravc3303 reporting.
  Task       12 on host ravc3303 reporting.
  Task       13 on host ravc3303 reporting.
  Task       14 on host ravc3303 reporting.
  Task       15 on host ravc3303 reporting.
  Task       16 on host ravc3303 reporting.
  Task       17 on host ravc3303 reporting.
  Task       18 on host ravc3303 reporting.
  Task       19 on host ravc3303 reporting.
  Task       20 on host ravc3303 reporting.
  Task       21 on host ravc3303 reporting.
  Task       22 on host ravc3303 reporting.
  Task       23 on host ravc3303 reporting.
  Task       24 on host ravc3303 reporting.
  Task       25 on host ravc3303 reporting.
  Task       26 on host ravc3303 reporting.
  Task       27 on host ravc3303 reporting.
  Task       28 on host ravc3303 reporting.
  Task       29 on host ravc3303 reporting.
  Task       30 on host ravc3303 reporting.
  Task       31 on host ravc3303 reporting.
  Task       32 on host ravc3303 reporting.
  Task       33 on host ravc3303 reporting.
  Task       34 on host ravc3303 reporting.
  Task       35 on host ravc3303 reporting.
  Task       36 on host ravc3303 reporting.
  Task       37 on host ravc3303 reporting.
  Task       38 on host ravc3303 reporting.
  Task       39 on host ravc3303 reporting.
  Task       40 on host ravc3303 reporting.
  Task       41 on host ravc3303 reporting.
  Task       42 on host ravc3303 reporting.
  Task       43 on host ravc3303 reporting.
  Task       44 on host ravc3303 reporting.
  Task       45 on host ravc3303 reporting.
  Task       46 on host ravc3303 reporting.
  Task       47 on host ravc3303 reporting.
  Task       48 on host ravc3303 reporting.
  Task       49 on host ravc3303 reporting.
  Task       50 on host ravc3303 reporting.
  Task       51 on host ravc3303 reporting.
  Task       52 on host ravc3303 reporting.
  Task       53 on host ravc3303 reporting.
  Task       54 on host ravc3303 reporting.
  Task       55 on host ravc3303 reporting.
  Task       56 on host ravc3303 reporting.
  Task       57 on host ravc3303 reporting.
  Task       58 on host ravc3303 reporting.
  Task       59 on host ravc3303 reporting.
  Task       60 on host ravc3303 reporting.
  Task       61 on host ravc3303 reporting.
  Task       62 on host ravc3303 reporting.
  Task       63 on host ravc3303 reporting.
  Task       64 on host ravc3303 reporting.
  Task       65 on host ravc3303 reporting.
  Task       66 on host ravc3303 reporting.
  Task       67 on host ravc3303 reporting.
  Task       68 on host ravc3303 reporting.
  Task       69 on host ravc3303 reporting.
  Task       70 on host ravc3303 reporting.
  Task       71 on host ravc3303 reporting.
  Task       72 on host ravc3304 reporting.
  Task       73 on host ravc3304 reporting.
  Task       74 on host ravc3304 reporting.
  Task       75 on host ravc3304 reporting.
  Task       76 on host ravc3304 reporting.
  Task       77 on host ravc3304 reporting.
  Task       78 on host ravc3304 reporting.
  Task       79 on host ravc3304 reporting.
  Task       80 on host ravc3304 reporting.
  Task       81 on host ravc3304 reporting.
  Task       82 on host ravc3304 reporting.
  Task       83 on host ravc3304 reporting.
  Task       84 on host ravc3304 reporting.
  Task       85 on host ravc3304 reporting.
  Task       86 on host ravc3304 reporting.
  Task       87 on host ravc3304 reporting.
  Task       88 on host ravc3304 reporting.
  Task       89 on host ravc3304 reporting.
  Task       90 on host ravc3304 reporting.
  Task       91 on host ravc3304 reporting.
  Task       92 on host ravc3304 reporting.
  Task       93 on host ravc3304 reporting.
  Task       94 on host ravc3304 reporting.
  Task       95 on host ravc3304 reporting.
  Task       96 on host ravc3304 reporting.
  Task       97 on host ravc3304 reporting.
  Task       98 on host ravc3304 reporting.
  Task       99 on host ravc3304 reporting.
  Task      100 on host ravc3304 reporting.
  Task      101 on host ravc3304 reporting.
  Task      102 on host ravc3304 reporting.
  Task      103 on host ravc3304 reporting.
  Task      104 on host ravc3304 reporting.
  Task      105 on host ravc3304 reporting.
  Task      106 on host ravc3304 reporting.
  Task      107 on host ravc3304 reporting.
  Task      108 on host ravc3304 reporting.
  Task      109 on host ravc3304 reporting.
  Task      110 on host ravc3304 reporting.
  Task      111 on host ravc3304 reporting.
  Task      112 on host ravc3304 reporting.
  Task      113 on host ravc3304 reporting.
  Task      114 on host ravc3304 reporting.
  Task      115 on host ravc3304 reporting.
  Task      116 on host ravc3304 reporting.
  Task      117 on host ravc3304 reporting.
  Task      118 on host ravc3304 reporting.
  Task      119 on host ravc3304 reporting.
  Task      120 on host ravc3304 reporting.
  Task      121 on host ravc3304 reporting.
  Task      122 on host ravc3304 reporting.
  Task      123 on host ravc3304 reporting.
  Task      124 on host ravc3304 reporting.
  Task      125 on host ravc3304 reporting.
  Task      126 on host ravc3304 reporting.
  Task      127 on host ravc3304 reporting.
  Task      128 on host ravc3304 reporting.
  Task      129 on host ravc3304 reporting.
  Task      130 on host ravc3304 reporting.
  Task      131 on host ravc3304 reporting.
  Task      132 on host ravc3304 reporting.
  Task      133 on host ravc3304 reporting.
  Task      134 on host ravc3304 reporting.
  Task      135 on host ravc3304 reporting.
  Task      136 on host ravc3304 reporting.
  Task      137 on host ravc3304 reporting.
  Task      138 on host ravc3304 reporting.
  Task      139 on host ravc3304 reporting.
  Task      140 on host ravc3304 reporting.
  Task      141 on host ravc3304 reporting.
  Task      142 on host ravc3304 reporting.
  Task      143 on host ravc3304 reporting.
  Task      144 on host ravc3305 reporting.
  Task      145 on host ravc3305 reporting.
  Task      146 on host ravc3305 reporting.
  Task      147 on host ravc3305 reporting.
  Task      148 on host ravc3305 reporting.
  Task      149 on host ravc3305 reporting.
  Task      150 on host ravc3305 reporting.
  Task      151 on host ravc3305 reporting.
  Task      152 on host ravc3305 reporting.
  Task      153 on host ravc3305 reporting.
  Task      154 on host ravc3305 reporting.
  Task      155 on host ravc3305 reporting.
  Task      156 on host ravc3305 reporting.
  Task      157 on host ravc3305 reporting.
  Task      158 on host ravc3305 reporting.
  Task      159 on host ravc3305 reporting.
  Task      160 on host ravc3305 reporting.
  Task      161 on host ravc3305 reporting.
  Task      162 on host ravc3305 reporting.
  Task      163 on host ravc3305 reporting.
  Task      164 on host ravc3305 reporting.
  Task      165 on host ravc3305 reporting.
  Task      166 on host ravc3305 reporting.
  Task      167 on host ravc3305 reporting.
  Task      168 on host ravc3305 reporting.
  Task      169 on host ravc3305 reporting.
  Task      170 on host ravc3305 reporting.
  Task      171 on host ravc3305 reporting.
  Task      172 on host ravc3305 reporting.
  Task      173 on host ravc3305 reporting.
  Task      174 on host ravc3305 reporting.
  Task      175 on host ravc3305 reporting.
  Task      176 on host ravc3305 reporting.
  Task      177 on host ravc3305 reporting.
  Task      178 on host ravc3305 reporting.
  Task      179 on host ravc3305 reporting.
  Task      180 on host ravc3305 reporting.
  Task      181 on host ravc3305 reporting.
  Task      182 on host ravc3305 reporting.
  Task      183 on host ravc3305 reporting.
  Task      184 on host ravc3305 reporting.
  Task      185 on host ravc3305 reporting.
  Task      186 on host ravc3305 reporting.
  Task      187 on host ravc3305 reporting.
  Task      188 on host ravc3305 reporting.
  Task      189 on host ravc3305 reporting.
  Task      190 on host ravc3305 reporting.
  Task      191 on host ravc3305 reporting.
  Task      192 on host ravc3305 reporting.
  Task      193 on host ravc3305 reporting.
  Task      194 on host ravc3305 reporting.
  Task      195 on host ravc3305 reporting.
  Task      196 on host ravc3305 reporting.
  Task      197 on host ravc3305 reporting.
  Task      198 on host ravc3305 reporting.
  Task      199 on host ravc3305 reporting.
  Task      200 on host ravc3305 reporting.
  Task      201 on host ravc3305 reporting.
  Task      202 on host ravc3305 reporting.
  Task      203 on host ravc3305 reporting.
  Task      204 on host ravc3305 reporting.
  Task      205 on host ravc3305 reporting.
  Task      206 on host ravc3305 reporting.
  Task      207 on host ravc3305 reporting.
  Task      208 on host ravc3305 reporting.
  Task      209 on host ravc3305 reporting.
  Task      210 on host ravc3305 reporting.
  Task      211 on host ravc3305 reporting.
  Task      212 on host ravc3305 reporting.
  Task      213 on host ravc3305 reporting.
  Task      214 on host ravc3305 reporting.
  Task      215 on host ravc3305 reporting.
  Task      216 on host ravc3310 reporting.
  Task      217 on host ravc3310 reporting.
  Task      218 on host ravc3310 reporting.
  Task      219 on host ravc3310 reporting.
  Task      220 on host ravc3310 reporting.
  Task      221 on host ravc3310 reporting.
  Task      222 on host ravc3310 reporting.
  Task      223 on host ravc3310 reporting.
  Task      224 on host ravc3310 reporting.
  Task      225 on host ravc3310 reporting.
  Task      226 on host ravc3310 reporting.
  Task      227 on host ravc3310 reporting.
  Task      228 on host ravc3310 reporting.
  Task      229 on host ravc3310 reporting.
  Task      230 on host ravc3310 reporting.
  Task      231 on host ravc3310 reporting.
  Task      232 on host ravc3310 reporting.
  Task      233 on host ravc3310 reporting.
  Task      234 on host ravc3310 reporting.
  Task      235 on host ravc3310 reporting.
  Task      236 on host ravc3310 reporting.
  Task      237 on host ravc3310 reporting.
  Task      238 on host ravc3310 reporting.
  Task      239 on host ravc3310 reporting.
  Task      240 on host ravc3310 reporting.
  Task      241 on host ravc3310 reporting.
  Task      242 on host ravc3310 reporting.
  Task      243 on host ravc3310 reporting.
  Task      244 on host ravc3310 reporting.
  Task      245 on host ravc3310 reporting.
  Task      246 on host ravc3310 reporting.
  Task      247 on host ravc3310 reporting.
  Task      248 on host ravc3310 reporting.
  Task      249 on host ravc3310 reporting.
  Task      250 on host ravc3310 reporting.
  Task      251 on host ravc3310 reporting.
  Task      252 on host ravc3310 reporting.
  Task      253 on host ravc3310 reporting.
  Task      254 on host ravc3310 reporting.
  Task      255 on host ravc3310 reporting.
  Task      256 on host ravc3310 reporting.
  Task      257 on host ravc3310 reporting.
  Task      258 on host ravc3310 reporting.
  Task      259 on host ravc3310 reporting.
  Task      260 on host ravc3310 reporting.
  Task      261 on host ravc3310 reporting.
  Task      262 on host ravc3310 reporting.
  Task      263 on host ravc3310 reporting.
  Task      264 on host ravc3310 reporting.
  Task      265 on host ravc3310 reporting.
  Task      266 on host ravc3310 reporting.
  Task      267 on host ravc3310 reporting.
  Task      268 on host ravc3310 reporting.
  Task      269 on host ravc3310 reporting.
  Task      270 on host ravc3310 reporting.
  Task      271 on host ravc3310 reporting.
  Task      272 on host ravc3310 reporting.
  Task      273 on host ravc3310 reporting.
  Task      274 on host ravc3310 reporting.
  Task      275 on host ravc3310 reporting.
  Task      276 on host ravc3310 reporting.
  Task      277 on host ravc3310 reporting.
  Task      278 on host ravc3310 reporting.
  Task      279 on host ravc3310 reporting.
  Task      280 on host ravc3310 reporting.
  Task      281 on host ravc3310 reporting.
  Task      282 on host ravc3310 reporting.
  Task      283 on host ravc3310 reporting.
  Task      284 on host ravc3310 reporting.
  Task      285 on host ravc3310 reporting.
  Task      286 on host ravc3310 reporting.
  Task      287 on host ravc3310 reporting.

  Performing system and environment tests:
  | Environment variable OMP_NUM_THREADS correctly set to 1.
  | Checking for ScaLAPACK...
  | Testing pdtran()...
  | All pdtran() tests passed.

  Obtaining array dimensions for all initial allocations:
  
  -----------------------------------------------------------------------
  Parsing control.in (first pass over file, find array dimensions only).
  The contents of control.in will be repeated verbatim below
  unless switched off by setting 'verbatim_writeout .false.' .
  in the first line of control.in .
  -----------------------------------------------------------------------
  
  xc                 hse06  0.11
  hse_unit b
  spin               collinear
  default_initial_moment 1
  charge      0.0
  relativistic       atomic_zora scalar
  #elsi_restart read
  output dos_tetrahedron -10 0 1001 0.1
  output species_proj_dos_tetrahedron -10 0 1001 0.1
  # SCF settings
  #relax_geometry bfgs 1E-3
  #relax_unit_cell fixed_angles
  use_symmetric_forces .true.
  occupation_type gaussian       0.1
  # k-grid settings  (to be adjusted)
  k_grid  4 4 1
  #empty_states 8
  use_dipole_correction
  include_spin_orbit non_self_consistent
  #energy_tolerance 1e-3
   sc_accuracy_rho    1E-4
      sc_accuracy_eev    1E-3
      sc_accuracy_etot   1E-4
      sc_accuracy_forces 1E-2
  many_body_dispersion_nl    beta=0.83
  ################################################################################
  #
  #  FHI-aims code project
  #  Volker Blum, 2018
  #
  #  Suggested "intermediate" defaults for Se atom (to be pasted into control.in file)
  #
  #  2020/09/15 These "intermediate" settings are identical to past "tight" defaults
  #             and differ only in the "g" function that is now included in "tight".
  #
  ################################################################################
    species        Se
  #     global species definitions
      nucleus             34
      mass                78.96
  #
      l_hartree           6
  #
      cut_pot             4.0          2.0  1.0
      basis_dep_cutoff    1e-4
  #
      radial_base         55 7.0
      radial_multiplier   2
      angular_grids       specified
        division   0.0830  110
        division   0.1357  194
        division   0.7377  302
        division   0.8610  434
  #      division   0.9640  590
  #      division   1.0773  770
  #      division   2.5539  974
  #      outer_grid  974
        outer_grid  434
  ################################################################################
  #
  #  Definition of "minimal" basis
  #
  ################################################################################
  #     valence basis states
      valence      4  s   2.
      valence      4  p   4.
      valence      3  d  10.
  #     ion occupancy
      ion_occ      4  s   1.
      ion_occ      4  p   3.
      ion_occ      3  d  10.
  ################################################################################
  #
  #  Suggested additional basis functions. For production calculations,
  #  uncomment them one after another (the most important basis functions are
  #  listed first).
  #
  #  Constructed for dimers: 1.85 A, 2.15 A, 2.50 A, 3.00 A, 4.00 A
  #
  ################################################################################
  #  "First tier" - improvements: -336.21 meV to -36.85 meV
       hydro 3 d 4.3
       hydro 2 p 1.6
       hydro 4 f 7.2
       ionic 4 s auto
  #  "Second tier" - improvements: -14.39 meV to -1.49 meV
  #     hydro 5 g 10.4
  #     hydro 4 p 4.5
  #     hydro 4 d 6.2
  #     hydro 4 f 11.2
  #     hydro 1 s 0.65
  #     hydro 6 h 15.2
  #  "Third tier" - improvements: -0.46 meV and below
  #     hydro 5 g 14.4
  #     ionic 4 d auto
  #     hydro 4 f 22.4
  #     hydro 5 f 7.4
  #     hydro 5 p 8
  #     hydro 5 s 9.4
  #  "Fourth tier" - improvements: -0.12 meV and below
  #     hydro 5 d 11.6
  #     hydro 6 h 18
  #     hydro 4 p 4
  #     hydro 5 f 16
  #     hydro 4 s 3.9
  
  
  ################################################################################
  #
  #  FHI-aims code project
  #  Volker Blum, 2018
  #
  #  Suggested "intermediate" defaults for S atom (to be pasted into control.in file)
  #
  ################################################################################
    species        S
  #     global species definitions
      nucleus             16
      mass                32.065
  #
      l_hartree           6
  #
      cut_pot             4.0          2.0  1.0
      basis_dep_cutoff    1e-4
  #
      radial_base         44 7.0
      radial_multiplier   2
      angular_grids       specified
        division   0.4665  110
        division   0.5810  194
        division   0.7139  302
        division   0.8274  434
  #      division   0.9105  590
  #      division   1.0975  770
  #      division   1.2028  974
  #      outer_grid  974
        outer_grid  434
  ################################################################################
  #
  #  Definition of "minimal" basis
  #
  ################################################################################
  #     valence basis states
      valence      3  s   2.
      valence      3  p   4.
  #     ion occupancy
      ion_occ      3  s   1.
      ion_occ      3  p   3.
  ################################################################################
  #
  #  Suggested additional basis functions. For production calculations,
  #  uncomment them one after another (the most important basis functions are
  #  listed first).
  #
  #  Constructed for dimers: 1.6 A, 1.9 A, 2.5 A, 3.25 A, 4.0 A
  #
  ################################################################################
  #  "First tier" - improvements: -652.81 meV to -45.53 meV
       ionic 3 d auto
       hydro 2 p 1.8
       hydro 4 f 7
       ionic 3 s auto
  #  "Second tier" - improvements: -30.20 meV to -1.74 meV
  #     hydro 4 d 6.2
  for_aux     hydro 5 g 10.8
  #     hydro 4 p 4.9
  #     hydro 5 f 10
  #     hydro 1 s 0.8
  #  "Third tier" - improvements: -1.04 meV to -0.20 meV
  #     hydro 3 d 3.9
  #     hydro 3 d 2.7
  #     hydro 5 g 12
  #     hydro 4 p 10.4
  #     hydro 5 f 12.4
  #     hydro 2 s 1.9
  #  "Fourth tier" - improvements: -0.35 meV to -0.06 meV
  #     hydro 4 d 10.4
  #     hydro 4 p 7.2
  #     hydro 4 d 10
  #     hydro 5 g 19.2
  #     hydro 4 s 12
  
  ################################################################################
  #
  #  FHI-aims code project
  # Volker Blum, Fritz Haber Institute Berlin, 2009
  #
  #  Suggested "intermediate" defaults for Mo atom (to be pasted into control.in file)
  #
  #  See https://aaltodoc.aalto.fi/handle/123456789/33620 for the report these
  #  setting are based on
  ################################################################################
    species        Mo
  #     global species definitions
      nucleus             42
      mass                95.94
  #
      l_hartree           6
  #
      cut_pot             4.0  2.0  1.0
      basis_dep_cutoff    1e-4
  #
      radial_base         59 7.0
      radial_multiplier   2
      angular_grids specified
        division   0.3117   50
        division   0.6750  110
        division   1.0351  194
        division   1.2073  302
        division   1.6402  434
  #      division   1.9185  590
  #      division   2.0237  770
  #      division   2.0980  974
  #      division   2.7972 1202
  #      outer_grid  974
        outer_grid  434
  ################################################################################
  #
  #  Definition of "minimal" basis
  #
  ################################################################################
  #     valence basis states
      valence      5  s   1.
      valence      4  p   6.
      valence      4  d   5.
  #     ion occupancy
      ion_occ     5  s   0.
      ion_occ     4  p   6.
      ion_occ     4  d   4.
  ################################################################################
  #
  #  Suggested additional basis functions. For production calculations,
  #  uncomment them one after another (the most important basis functions are
  #  listed first).
  #
  #  Constructed for dimers: 1.675 A, 1.9 A, 2.375 A, 3.00 A, 4.00 A
  #
  ################################################################################
  #  "First tier"  - max. impr. -711.23  meV, min. impr. -21.07 meV
       hydro 4 f 8.4
       hydro 3 d 2.8
       ionic 5 p auto
       for_aux hydro 5 g 12
       ionic 5 s auto
  #  "Second tier" - max. impr. -39.38  meV, min. impr. -2.68 meV
  #     hydro 4 f 12.4
  #     hydro 3 d 3.3
  #     hydro 6 h 17.2
  #     hydro 4 f 7.6
  #     hydro 3 p 3.0
  #     hydro 1 s 0.65
  #  "Third tier"  - max. impr. -5.50 meV, min. impr. -0.47 meV
  #     hydro 4 f 29.2
  #     hydro 5 g 11.2
  #     hydro 3 d 6.8
  #     hydro 6 h 14.8
  #     hydro 2 p 2.3
  #     hydro 4 s 3.8
  #  "Fourth tier"  - max. impr. -0.58 meV, min. impr. -0.19 meV
  #     hydro 5 f 6.8
  #     hydro 5 d 14.8
  #     hydro 6 s 7.8
  #     hydro 5 g 20.8
  #     hydro 5 d 10.4
  #     hydro 5 p 9.8
  #  Further functions - -0.17 meV and below
  #     hydro 5 d 3.2
  ################################################################################
  #
  #  FHI-aims code project
  #  Volker Blum, Maria Dragoumi, Sebastian Kokott 2020
  #
  #  Suggested "intermediate" defaults for W atom (to be pasted into control.in file)
  #
  ################################################################################
    species          W
  #     global species definitions
      nucleus        74
      mass           183.84
  #
      l_hartree      6
  #
      cut_pot        4.0  2.0  1.0
      basis_dep_cutoff    1e-4
  #
      radial_base    71  7.0
      radial_multiplier  2
      angular_grids specified
        division   0.2901   50
        division   0.6986  110
        division   1.0528  194
        division   1.2659  302
        division   1.5223  434
  #      division   1.8111  590
  #      division   2.0105  770
  #      division   2.0413  974
  #      division   2.8804 1202
  #      outer_grid  974
        outer_grid  434
  ################################################################################
  #
  #  Definition of "minimal" basis
  #
  ################################################################################
  #     valence basis states
      valence      6  s   2.
      valence      5  p   6.
      valence      5  d   4.
      valence      4  f  14.
  #     ion occupancy
      ion_occ      6  s   1.
      ion_occ      5  p   6.
      ion_occ      5  d   3.
      ion_occ      4  f  14.
  ################################################################################
  #
  #  Suggested additional basis functions. For production calculations,
  #  uncomment them one after another (the most important basis functions are
  #  listed first).
  #
  #  Constructed for dimers: 1.775, 1.99, 2.50, 3.25, 4.50 AA
  #
  ################################################################################
  #
  #  "First tier" - improvements: -603.77 meV to -28.99 meV
       hydro 4 f 7.8
       hydro 4 d 5.8
       ionic 6 p auto
    for_aux   hydro 5 g 12.4
       ionic 6 s auto
  #  "Second tier" - improvements: -28.30 meV to -1.31 meV
  #     hydro 6 h 16.8
  #     ionic 5 d auto
  #     hydro 4 f 8.6
  #     hydro 5 g 16.8
  #     hydro 5 d 8.4
  #     hydro 3 p 3.3
  #     hydro 1 s 0.55
  #  "Third tier" - max. impr. -1.79 meV, min. impr. -0.26 meV
  #     hydro 5 f 10.8
  #     hydro 5 g 34.4
  #     hydro 6 h 20.8
  #     hydro 5 g 12.8
  #     hydro 2 p 1.6
  #     hydro 4 s 4.7
  #     hydro 6 d 18.4
  #  "Fourth tier" -0.46 max. impr. - meV, min. impr. -0.09 meV
  #     hydro 6 h 21.6
  #     hydro 5 f 22.4
  #     hydro 4 f 4
  #     hydro 5 p 9.6
  #     hydro 6 d 17.2
  #     hydro 3 p 5.2
  #     hydro 5 g 4.7
  #     hydro 6 s 7.6
  
  -----------------------------------------------------------------------
  Completed first pass over input file control.in .
  -----------------------------------------------------------------------
  
  
  -----------------------------------------------------------------------
  Parsing geometry.in (first pass over file, find array dimensions only).
  The contents of geometry.in will be repeated verbatim below
  unless switched off by setting 'verbatim_writeout .false.' .
  in the first line of geometry.in .
  -----------------------------------------------------------------------
  
  #
  # This is the geometry file that corresponds to the current relaxation step.
  # If you do not want this file to be written, set the "write_restart_geometry" flag to .false.
  #  aims_uuid : F6584358-7A96-4D0D-A68B-7182D961A7CA
  #
    set_vacuum_level         0.002315
  lattice_vector     15.72847685      0.00000000      0.00000000
  lattice_vector     -7.86461685     13.62035640      0.00000000
  lattice_vector      0.00000000      0.00000000    103.13570646
  atom       0.00109613      0.90670079     51.59679565 W
  atom       1.58560798      1.83136133     53.15290625 S
  atom       1.56585224      1.82092066     50.02130046 S
  atom      -1.56981366      3.63325480     51.60281892 W
  atom       0.01805919      4.54995825     53.15849276 S
  atom      -0.00556890      4.53625710     50.02385353 S
  atom      -3.14587151      6.35684349     51.59675098 W
  atom      -1.55276150      7.26661205     53.15284221 S
  atom      -1.57167671      7.25470498     50.02122256 S
  atom      -4.72580386      9.07566867     51.57897432 W
  atom      -3.14595585      9.98473181     53.14402130 S
  atom      -3.14595369      9.98389176     50.01491429 S
  atom      -6.29863088     11.79954113     51.57899027 W
  atom      -4.72135818     12.71303878     53.14405493 S
  atom      -4.72209515     12.71350679     50.01494242 S
  atom       3.14577092      0.91537633     51.57904076 W
  atom       4.71850465      1.84985516     53.12975133 S
  atom       4.71850284      1.81359581     50.00230589 S
  atom       1.58159907      3.64882001     51.57944703 W
  atom       3.19524216      4.62102262     53.10337881 S
  atom       3.13104658      4.55681066     49.97116569 S
  atom       0.01932122      6.35450250     51.57938742 W
  atom       1.66816126      7.26569909     53.10331029 S
  atom       1.58053082      7.24216324     49.97110945 S
  atom      -1.56607914      9.07567280     51.57897685 W
  atom       0.02966843      9.97030312     53.12967455 S
  atom      -0.00174037      9.98845279     50.00224076 S
  atom      -3.14601838     11.80366149     51.57929963 W
  atom      -1.57070718     12.71304294     53.14405372 S
  atom      -1.56996293     12.71350558     50.01494770 S
  atom       6.29127327      0.91538409     51.57903830 W
  atom       7.85140756      1.83135476     53.15290571 S
  atom       7.87116169      1.82091957     50.02129110 S
  atom       4.71845212      3.66168638     51.53969615 W
  atom       6.24161571      4.62100699     53.10339040 S
  atom       6.30580330      4.55682014     49.97116770 S
  atom       3.21317237      6.39452268     51.49005650 W
  atom       4.71835779      7.26343720     49.87240054 S
  atom       1.59887324      9.06443173     51.53961285 W
  atom       3.19132127      9.90374519     53.10330673 S
  atom       3.16783102      9.99142965     49.97107437 S
  atom       0.00660859     11.79954909     51.57900069 W
  atom       1.58001890     12.69251537     53.15286456 S
  atom       1.58083708     12.71488046     50.02125214 S
  atom       9.43594315      0.90669526     51.59679386 W
  atom      11.00532920      1.81272412     53.16962645 S
  atom      11.01228180      1.81674159     50.03653151 S
  atom       7.85527860      3.64880783     51.57944624 W
  atom       9.41879109      4.54995151     53.15849421 S
  atom       9.44241814      4.53625350     50.02386148 S
  atom       6.22355196      6.39450911     51.49007399 W
  atom       7.76853841      7.26569844     53.10331679 S
  atom       7.85616409      7.24215529     49.97112137 S
  atom       4.71829132      9.00147030     51.48999702 W
  atom       6.24524527      9.90372126     53.10330395 S
  atom       6.26873665      9.99143468     49.97107662 S
  atom       3.15604180     11.78725439     51.57937545 W
  atom       4.71820224     12.69064609     53.15846382 S
  atom       4.71821075     12.71796551     50.02381837 S
  atom      12.58275861      0.90375049     51.60281540 W
  atom      14.16015702      1.81272600     53.16962698 S
  atom      14.15320859      1.81674055     50.03652824 S
  atom      11.00669739      3.63325642     51.60282003 W
  atom      12.58266629      4.54474771     53.16960977 S
  atom      12.58266715      4.53667128     50.03651619 S
  atom       9.41741107      6.35450447     51.57938461 W
  atom      10.98947055      7.26660772     53.15284297 S
  atom      11.00838367      7.25469855     50.02122151 S
  atom       7.83773527      9.06442966     51.53961084 W
  atom       9.40690182      9.97030121     53.12967559 S
  atom       9.43831016      9.98844748     50.00223026 S
  atom       6.28040075     11.78725281     51.57939192 W
  atom       7.85640514     12.69251144     53.15286137 S
  atom       7.85557187     12.71487986     50.02125913 S
  #
  # What follows is the current estimated Hessian matrix constructed by the BFGS algorithm.
  # This is NOT the true Hessian matrix of the system.
  # If you do not want this information here, switch it off using the "hessian_to_restart_geometry" keyword.
  #
  
  -----------------------------------------------------------------------
  Completed first pass over input file geometry.in .
  -----------------------------------------------------------------------
  

  Basic array size parameters:
  | Number of species                 :        4
  | Number of atoms                   :       74
  | Number of lattice vectors         :        3
  | Max. basis fn. angular momentum   :        4
  | Max. atomic/ionic basis occupied n:        6
  | Max. number of basis fn. types    :        3
  | Max. radial fns per species/type  :       14
  | Max. logarithmic grid size        :     1483
  | Max. radial integration grid size :      143
  | Max. angular integration grid size:      434
  | Max. angular grid division number :        8
  | Radial grid for Hartree potential :     1483
  | Number of spin channels           :        2

------------------------------------------------------------
          Reading file control.in.
------------------------------------------------------------

  XC: Using HSE-functional with OMEGA =  0.110000E+00 <units>.
  XC: For the actual units (bohr^-1 or Angstrom^-1), see below.
  hse_unit: Unit for the HSE06 hybrid functional screening parameter set to bohr^(-1).
  Spin treatment: Spin density functional theory - collinear spins.
  Initial spin moment per atom:   1.0000
  Charge =   0.000000E+00: Neutral system requested explicitly.
  Scalar relativistic treatment of kinetic energy: on-site free-atom approximation to ZORA.
  Calculating density of states with
  | energy interval :-10.000000  0.000000
  | points & tetrahedron method :  1001
  Calculating angular-momentum projected DOS with 
  | energy interval :-10.000000  0.000000
  | points & tetrahedron :  1001
  Occupation type: Gaussian broadening, width =   0.100000E+00 eV.
  Found k-point grid:         4         4         1
  Using dipole correction.
  Calculating non-self-consistent second-variational spin-orbit coupling after scf-cycle
  You have request a SOC run with spin-polarization.
  symmetry_reduced_k_grid will be turned off.
  Convergence accuracy of self-consistent charge density:  0.1000E-03
  Convergence accuracy of sum of eigenvalues:  0.1000E-02
  Convergence accuracy of total energy:  0.1000E-03
  Convergence accuracy of forces:  0.1000E-01
  Using libMBD for calculating MBD and TS energies
 
  Reading configuration options for species Se                  .
  | Found nuclear charge :  34.0000
  | Found atomic mass :    78.9600000000000      amu
  | Found l_max for Hartree potential  :   6
  | Found cutoff potl. onset [A], width [A], scale factor :    4.00000    2.00000    1.00000
  | Threshold for basis-dependent cutoff potential is   0.100000E-03
  | Found data for basic radial integration grid :    55 points, outermost radius =    7.000 A
  | Found multiplier for basic radial grid :   2
  | Found angular grid specification: user-specified.
  | Specified grid contains     5 separate shells.
  | Check grid settings after all constraints further below.
  | Found free-atom valence shell :  4 s   2.000
  | Found free-atom valence shell :  4 p   4.000
  | Found free-atom valence shell :  3 d  10.000
  | Found free-ion valence shell :  4 s   1.000
  | Found free-ion valence shell :  4 p   3.000
  | Found free-ion valence shell :  3 d  10.000
  | Found hydrogenic basis function :  3 d   4.300
  | Found hydrogenic basis function :  2 p   1.600
  | Found hydrogenic basis function :  4 f   7.200
  | Found ionic basis function :  4 s , default cutoff radius.
  Species Se                  : Missing cutoff potential type.
  Defaulting to exp(1/x)/(1-x)^2 type cutoff potential.
  Species Se: No 'logarithmic' tag. Using default grid for free atom:
  | Default logarithmic grid data [bohr] : 0.1000E-03 0.1000E+03 0.1012E+01
  | Will include ionic basis functions of  2.0-fold positive Se                   ion.
  Species Se: On-site basis accuracy parameter (for Gram-Schmidt orthonormalisation) not specified.
  Using default value basis_acc =  0.1000000E-03.
  Species Se                  : Using default innermost maximum threshold i_radial=  2 for radial functions.
  Species Se                  : Default cutoff onset for free atom density etc. : 0.40000000E+01 AA.
  Species Se                  : Basic radial grid will be enhanced according to radial_multiplier =   2, to contain   111 grid points.
 
  Reading configuration options for species S                   .
  | Found nuclear charge :  16.0000
  | Found atomic mass :    32.0650000000000      amu
  | Found l_max for Hartree potential  :   6
  | Found cutoff potl. onset [A], width [A], scale factor :    4.00000    2.00000    1.00000
  | Threshold for basis-dependent cutoff potential is   0.100000E-03
  | Found data for basic radial integration grid :    44 points, outermost radius =    7.000 A
  | Found multiplier for basic radial grid :   2
  | Found angular grid specification: user-specified.
  | Specified grid contains     5 separate shells.
  | Check grid settings after all constraints further below.
  | Found free-atom valence shell :  3 s   2.000
  | Found free-atom valence shell :  3 p   4.000
  | Found free-ion valence shell :  3 s   1.000
  | Found free-ion valence shell :  3 p   3.000
  | Found ionic basis function :  3 d , default cutoff radius.
  | Found hydrogenic basis function :  2 p   1.800
  | Found hydrogenic basis function :  4 f   7.000
  | Found ionic basis function :  3 s , default cutoff radius.
  | Found hydrogenic extended basis function :  5 g  10.800
  Species S                   : Missing cutoff potential type.
  Defaulting to exp(1/x)/(1-x)^2 type cutoff potential.
  Species S : No 'logarithmic' tag. Using default grid for free atom:
  | Default logarithmic grid data [bohr] : 0.1000E-03 0.1000E+03 0.1012E+01
  | Will include ionic basis functions of  2.0-fold positive S                    ion.
  Species S : On-site basis accuracy parameter (for Gram-Schmidt orthonormalisation) not specified.
  Using default value basis_acc =  0.1000000E-03.
  Species S                   : Using default innermost maximum threshold i_radial=  2 for radial functions.
  Species S                   : Default cutoff onset for free atom density etc. : 0.40000000E+01 AA.
  Species S                   : Basic radial grid will be enhanced according to radial_multiplier =   2, to contain    89 grid points.
 
  Reading configuration options for species Mo                  .
  | Found nuclear charge :  42.0000
  | Found atomic mass :    95.9400000000000      amu
  | Found l_max for Hartree potential  :   6
  | Found cutoff potl. onset [A], width [A], scale factor :    4.00000    2.00000    1.00000
  | Threshold for basis-dependent cutoff potential is   0.100000E-03
  | Found data for basic radial integration grid :    59 points, outermost radius =    7.000 A
  | Found multiplier for basic radial grid :   2
  | Found angular grid specification: user-specified.
  | Specified grid contains     6 separate shells.
  | Check grid settings after all constraints further below.
  | Found free-atom valence shell :  5 s   1.000
  | Found free-atom valence shell :  4 p   6.000
  | Found free-atom valence shell :  4 d   5.000
  | Found free-ion valence shell :  5 s   0.000
  | Found free-ion valence shell :  4 p   6.000
  | Found free-ion valence shell :  4 d   4.000
  | Found hydrogenic basis function :  4 f   8.400
  | Found hydrogenic basis function :  3 d   2.800
  | Found ionic basis function :  5 p , default cutoff radius.
  | Found hydrogenic extended basis function :  5 g  12.000
  | Found ionic basis function :  5 s , default cutoff radius.
  Species Mo                  : Missing cutoff potential type.
  Defaulting to exp(1/x)/(1-x)^2 type cutoff potential.
  Species Mo: No 'logarithmic' tag. Using default grid for free atom:
  | Default logarithmic grid data [bohr] : 0.1000E-03 0.1000E+03 0.1012E+01
  | Will include ionic basis functions of  2.0-fold positive Mo                   ion.
  Species Mo: On-site basis accuracy parameter (for Gram-Schmidt orthonormalisation) not specified.
  Using default value basis_acc =  0.1000000E-03.
  Species Mo                  : Using default innermost maximum threshold i_radial=  2 for radial functions.
  Species Mo                  : Default cutoff onset for free atom density etc. : 0.40000000E+01 AA.
  Species Mo                  : Basic radial grid will be enhanced according to radial_multiplier =   2, to contain   119 grid points.
 
  Reading configuration options for species W                   .
  | Found nuclear charge :  74.0000
  | Found atomic mass :    183.840000000000      amu
  | Found l_max for Hartree potential  :   6
  | Found cutoff potl. onset [A], width [A], scale factor :    4.00000    2.00000    1.00000
  | Threshold for basis-dependent cutoff potential is   0.100000E-03
  | Found data for basic radial integration grid :    71 points, outermost radius =    7.000 A
  | Found multiplier for basic radial grid :   2
  | Found angular grid specification: user-specified.
  | Specified grid contains     6 separate shells.
  | Check grid settings after all constraints further below.
  | Found free-atom valence shell :  6 s   2.000
  | Found free-atom valence shell :  5 p   6.000
  | Found free-atom valence shell :  5 d   4.000
  | Found free-atom valence shell :  4 f  14.000
  | Found free-ion valence shell :  6 s   1.000
  | Found free-ion valence shell :  5 p   6.000
  | Found free-ion valence shell :  5 d   3.000
  | Found free-ion valence shell :  4 f  14.000
  | Found hydrogenic basis function :  4 f   7.800
  | Found hydrogenic basis function :  4 d   5.800
  | Found ionic basis function :  6 p , default cutoff radius.
  | Found hydrogenic extended basis function :  5 g  12.400
  | Found ionic basis function :  6 s , default cutoff radius.
  Species W                   : Missing cutoff potential type.
  Defaulting to exp(1/x)/(1-x)^2 type cutoff potential.
  Species W : No 'logarithmic' tag. Using default grid for free atom:
  | Default logarithmic grid data [bohr] : 0.1000E-03 0.1000E+03 0.1012E+01
  | Will include ionic basis functions of  2.0-fold positive W                    ion.
  Species W : On-site basis accuracy parameter (for Gram-Schmidt orthonormalisation) not specified.
  Using default value basis_acc =  0.1000000E-03.
  Species W                   : Using default innermost maximum threshold i_radial=  2 for radial functions.
  Species W                   : Default cutoff onset for free atom density etc. : 0.40000000E+01 AA.
  Species W                   : Basic radial grid will be enhanced according to radial_multiplier =   2, to contain   143 grid points.
 
  Finished reading input file 'control.in'.
 
------------------------------------------------------------


------------------------------------------------------------
          Reading geometry description geometry.in.
------------------------------------------------------------
  Vacuum level in z-axis :   0.231500E-02
  | The smallest distance between any two atoms is         2.37431620 AA.
  | The first atom of this pair is atom number                     38 .
  | The second atom of this pair is atom number                    54 .
  | Wigner-Seitz cell of the first atom image           0     0     0 .
  | (The Wigner-Seitz cell of the second atom is 0 0 0  by definition.)

  Symmetry information by spglib:
  | Precision set to  0.1E-04
  | Number of Operations  : 1
  | Space group           : 1
  | International         : P1 -
  | Schoenflies           : C1^1
  Input structure read successfully.
  The structure contains       74 atoms,  and a total of       2634.000 electrons.

  Input geometry:
  | Unit cell:
  |       15.72847685        0.00000000        0.00000000
  |       -7.86461685       13.62035640        0.00000000
  |        0.00000000        0.00000000      103.13570646
  | Atomic structure:
  |       Atom                x [A]            y [A]            z [A]
  |    1: Species W             0.00109613        0.90670079       51.59679565
  |    2: Species S             1.58560798        1.83136133       53.15290625
  |    3: Species S             1.56585224        1.82092066       50.02130046
  |    4: Species W            -1.56981366        3.63325480       51.60281892
  |    5: Species S             0.01805919        4.54995825       53.15849276
  |    6: Species S            -0.00556890        4.53625710       50.02385353
  |    7: Species W            -3.14587151        6.35684349       51.59675098
  |    8: Species S            -1.55276150        7.26661205       53.15284221
  |    9: Species S            -1.57167671        7.25470498       50.02122256
  |   10: Species W            -4.72580386        9.07566867       51.57897432
  |   11: Species S            -3.14595585        9.98473181       53.14402130
  |   12: Species S            -3.14595369        9.98389176       50.01491429
  |   13: Species W            -6.29863088       11.79954113       51.57899027
  |   14: Species S            -4.72135818       12.71303878       53.14405493
  |   15: Species S            -4.72209515       12.71350679       50.01494242
  |   16: Species W             3.14577092        0.91537633       51.57904076
  |   17: Species S             4.71850465        1.84985516       53.12975133
  |   18: Species S             4.71850284        1.81359581       50.00230589
  |   19: Species W             1.58159907        3.64882001       51.57944703
  |   20: Species S             3.19524216        4.62102262       53.10337881
  |   21: Species S             3.13104658        4.55681066       49.97116569
  |   22: Species W             0.01932122        6.35450250       51.57938742
  |   23: Species S             1.66816126        7.26569909       53.10331029
  |   24: Species S             1.58053082        7.24216324       49.97110945
  |   25: Species W            -1.56607914        9.07567280       51.57897685
  |   26: Species S             0.02966843        9.97030312       53.12967455
  |   27: Species S            -0.00174037        9.98845279       50.00224076
  |   28: Species W            -3.14601838       11.80366149       51.57929963
  |   29: Species S            -1.57070718       12.71304294       53.14405372
  |   30: Species S            -1.56996293       12.71350558       50.01494770
  |   31: Species W             6.29127327        0.91538409       51.57903830
  |   32: Species S             7.85140756        1.83135476       53.15290571
  |   33: Species S             7.87116169        1.82091957       50.02129110
  |   34: Species W             4.71845212        3.66168638       51.53969615
  |   35: Species S             6.24161571        4.62100699       53.10339040
  |   36: Species S             6.30580330        4.55682014       49.97116770
  |   37: Species W             3.21317237        6.39452268       51.49005650
  |   38: Species S             4.71835779        7.26343720       49.87240054
  |   39: Species W             1.59887324        9.06443173       51.53961285
  |   40: Species S             3.19132127        9.90374519       53.10330673
  |   41: Species S             3.16783102        9.99142965       49.97107437
  |   42: Species W             0.00660859       11.79954909       51.57900069
  |   43: Species S             1.58001890       12.69251537       53.15286456
  |   44: Species S             1.58083708       12.71488046       50.02125214
  |   45: Species W             9.43594315        0.90669526       51.59679386
  |   46: Species S            11.00532920        1.81272412       53.16962645
  |   47: Species S            11.01228180        1.81674159       50.03653151
  |   48: Species W             7.85527860        3.64880783       51.57944624
  |   49: Species S             9.41879109        4.54995151       53.15849421
  |   50: Species S             9.44241814        4.53625350       50.02386148
  |   51: Species W             6.22355196        6.39450911       51.49007399
  |   52: Species S             7.76853841        7.26569844       53.10331679
  |   53: Species S             7.85616409        7.24215529       49.97112137
  |   54: Species W             4.71829132        9.00147030       51.48999702
  |   55: Species S             6.24524527        9.90372126       53.10330395
  |   56: Species S             6.26873665        9.99143468       49.97107662
  |   57: Species W             3.15604180       11.78725439       51.57937545
  |   58: Species S             4.71820224       12.69064609       53.15846382
  |   59: Species S             4.71821075       12.71796551       50.02381837
  |   60: Species W            12.58275861        0.90375049       51.60281540
  |   61: Species S            14.16015702        1.81272600       53.16962698
  |   62: Species S            14.15320859        1.81674055       50.03652824
  |   63: Species W            11.00669739        3.63325642       51.60282003
  |   64: Species S            12.58266629        4.54474771       53.16960977
  |   65: Species S            12.58266715        4.53667128       50.03651619
  |   66: Species W             9.41741107        6.35450447       51.57938461
  |   67: Species S            10.98947055        7.26660772       53.15284297
  |   68: Species S            11.00838367        7.25469855       50.02122151
  |   69: Species W             7.83773527        9.06442966       51.53961084
  |   70: Species S             9.40690182        9.97030121       53.12967559
  |   71: Species S             9.43831016        9.98844748       50.00223026
  |   72: Species W             6.28040075       11.78725281       51.57939192
  |   73: Species S             7.85640514       12.69251144       53.15286137
  |   74: Species S             7.85557187       12.71487986       50.02125913

  Lattice parameters for 3D lattice (in Angstroms) :    15.728477   15.727883  103.135706
  Angle(s) between unit vectors (in degrees)       :    90.000000   90.000000  120.002841


  Quantities derived from the lattice vectors:
  | Reciprocal lattice vector 1:  0.399478  0.230665  0.000000
  | Reciprocal lattice vector 2:  0.000000  0.461308  0.000000
  | Reciprocal lattice vector 3:  0.000000  0.000000  0.060922
  | Unit cell volume                               :   0.220945E+05  A^3

  Fractional coordinates:
                         L1                L2                L3
       atom_frac         0.03335606        0.06656953        0.50028062  W
       atom_frac         0.16804335        0.13445767        0.51536862  S
       atom_frac         0.16640401        0.13369112        0.48500468  S
       atom_frac         0.03357523        0.26675182        0.50033903  W
       atom_frac         0.16818409        0.33405574        0.51542278  S
       atom_frac         0.16617885        0.33304981        0.48502944  S
       atom_frac         0.03335822        0.46671638        0.50028019  W
       atom_frac         0.16804547        0.53351115        0.51536799  S
       atom_frac         0.16640574        0.53263694        0.48500393  S
       atom_frac         0.03272001        0.66633122        0.50010783  W
       atom_frac         0.16653817        0.73307420        0.51528247  S
       atom_frac         0.16650747        0.73301252        0.48494276  S
       atom_frac         0.03271883        0.86631662        0.50010798  W
       atom_frac         0.16653606        0.93338518        0.51528279  S
       atom_frac         0.16650639        0.93341954        0.48494303  S
       atom_frac         0.23360966        0.06720649        0.50010847  W
       atom_frac         0.36790856        0.13581547        0.51514411  S
       atom_frac         0.36657731        0.13315333        0.48482051  S
       atom_frac         0.23451015        0.26789461        0.50011241  W
       atom_frac         0.37279492        0.33927325        0.51488840  S
       atom_frac         0.36635612        0.33455884        0.48451858  S
       atom_frac         0.23451190        0.46654451        0.50011184  W
       atom_frac         0.37279483        0.53344412        0.51488773  S
       atom_frac         0.36635935        0.53171613        0.48451803  S
       atom_frac         0.23361213        0.66633152        0.50010785  W
       atom_frac         0.36791132        0.73201485        0.51514336  S
       atom_frac         0.36658069        0.73334739        0.48481988  S
       atom_frac         0.23330988        0.86661914        0.50011098  W
       atom_frac         0.36685129        0.93338548        0.51528278  S
       atom_frac         0.36691559        0.93341945        0.48494309  S
       atom_frac         0.43359768        0.06720706        0.50010845  W
       atom_frac         0.56641605        0.13445718        0.51536861  S
       atom_frac         0.56728891        0.13369104        0.48500459  S
       atom_frac         0.43442031        0.26883925        0.49972699  W
       atom_frac         0.56647957        0.33927211        0.51488851  S
       atom_frac         0.56820415        0.33455954        0.48451860  S
       atom_frac         0.43904280        0.46948277        0.49924569  W
       atom_frac         0.56664008        0.53327806        0.48356095  S
       atom_frac         0.43442379        0.66550621        0.49972618  W
       atom_frac         0.56648244        0.72712820        0.51488770  S
       atom_frac         0.56820798        0.73356595        0.48451769  S
       atom_frac         0.43359961        0.86631721        0.50010809  W
       atom_frac         0.56641754        0.93187836        0.51536821  S
       atom_frac         0.56729061        0.93352039        0.48500421  S
       atom_frac         0.63321350        0.06656913        0.50028061  W
       atom_frac         0.76625511        0.13308933        0.51553073  S
       atom_frac         0.76684464        0.13338429        0.48515236  S
       atom_frac         0.63338365        0.26789371        0.50011241  W
       atom_frac         0.76587248        0.33405525        0.51542280  S
       atom_frac         0.76687179        0.33304954        0.48502951  S
       atom_frac         0.63043907        0.46948178        0.49924586  W
       atom_frac         0.76065037        0.53344408        0.51488780  S
       atom_frac         0.76535721        0.53171555        0.48451815  S
       atom_frac         0.63044170        0.66088361        0.49924511  W
       atom_frac         0.76064683        0.72712644        0.51488767  S
       atom_frac         0.76536048        0.73356632        0.48451771  S
       atom_frac         0.63338590        0.86541453        0.50011172  W
       atom_frac         0.76587131        0.93174112        0.51542250  S
       atom_frac         0.76687479        0.93374690        0.48502910  S
       atom_frac         0.83317661        0.06635293        0.50033899  W
       atom_frac         0.96683581        0.13308947        0.51553074  S
       atom_frac         0.96654142        0.13338422        0.48515233  S
       atom_frac         0.83317662        0.26675193        0.50033904  W
       atom_frac         0.96683730        0.33367319        0.51553057  S
       atom_frac         0.96654085        0.33308022        0.48515221  S
       atom_frac         0.83203263        0.46654465        0.50011181  W
       atom_frac         0.96546722        0.53351084        0.51536800  S
       atom_frac         0.96623249        0.53263647        0.48500392  S
       atom_frac         0.83108400        0.66550606        0.49972616  W
       atom_frac         0.96410588        0.73201471        0.51514337  S
       atom_frac         0.96676897        0.73334700        0.48481978  S
       atom_frac         0.83202930        0.86541442        0.50011188  W
       atom_frac         0.96546342        0.93187807        0.51536818  S
       atom_frac         0.96623162        0.93352035        0.48500428  S

  Initial moments and charges:
  |  Atom   Moment         Charge        Species
  |     1   0.100000E+01   0.000000E+00   W
  |     2   0.100000E+01   0.000000E+00   S
  |     3   0.100000E+01   0.000000E+00   S
  |     4   0.100000E+01   0.000000E+00   W
  |     5   0.100000E+01   0.000000E+00   S
  |     6   0.100000E+01   0.000000E+00   S
  |     7   0.100000E+01   0.000000E+00   W
  |     8   0.100000E+01   0.000000E+00   S
  |     9   0.100000E+01   0.000000E+00   S
  |    10   0.100000E+01   0.000000E+00   W
  |    11   0.100000E+01   0.000000E+00   S
  |    12   0.100000E+01   0.000000E+00   S
  |    13   0.100000E+01   0.000000E+00   W
  |    14   0.100000E+01   0.000000E+00   S
  |    15   0.100000E+01   0.000000E+00   S
  |    16   0.100000E+01   0.000000E+00   W
  |    17   0.100000E+01   0.000000E+00   S
  |    18   0.100000E+01   0.000000E+00   S
  |    19   0.100000E+01   0.000000E+00   W
  |    20   0.100000E+01   0.000000E+00   S
  |    21   0.100000E+01   0.000000E+00   S
  |    22   0.100000E+01   0.000000E+00   W
  |    23   0.100000E+01   0.000000E+00   S
  |    24   0.100000E+01   0.000000E+00   S
  |    25   0.100000E+01   0.000000E+00   W
  |    26   0.100000E+01   0.000000E+00   S
  |    27   0.100000E+01   0.000000E+00   S
  |    28   0.100000E+01   0.000000E+00   W
  |    29   0.100000E+01   0.000000E+00   S
  |    30   0.100000E+01   0.000000E+00   S
  |    31   0.100000E+01   0.000000E+00   W
  |    32   0.100000E+01   0.000000E+00   S
  |    33   0.100000E+01   0.000000E+00   S
  |    34   0.100000E+01   0.000000E+00   W
  |    35   0.100000E+01   0.000000E+00   S
  |    36   0.100000E+01   0.000000E+00   S
  |    37   0.100000E+01   0.000000E+00   W
  |    38   0.100000E+01   0.000000E+00   S
  |    39   0.100000E+01   0.000000E+00   W
  |    40   0.100000E+01   0.000000E+00   S
  |    41   0.100000E+01   0.000000E+00   S
  |    42   0.100000E+01   0.000000E+00   W
  |    43   0.100000E+01   0.000000E+00   S
  |    44   0.100000E+01   0.000000E+00   S
  |    45   0.100000E+01   0.000000E+00   W
  |    46   0.100000E+01   0.000000E+00   S
  |    47   0.100000E+01   0.000000E+00   S
  |    48   0.100000E+01   0.000000E+00   W
  |    49   0.100000E+01   0.000000E+00   S
  |    50   0.100000E+01   0.000000E+00   S
  |    51   0.100000E+01   0.000000E+00   W
  |    52   0.100000E+01   0.000000E+00   S
  |    53   0.100000E+01   0.000000E+00   S
  |    54   0.100000E+01   0.000000E+00   W
  |    55   0.100000E+01   0.000000E+00   S
  |    56   0.100000E+01   0.000000E+00   S
  |    57   0.100000E+01   0.000000E+00   W
  |    58   0.100000E+01   0.000000E+00   S
  |    59   0.100000E+01   0.000000E+00   S
  |    60   0.100000E+01   0.000000E+00   W
  |    61   0.100000E+01   0.000000E+00   S
  |    62   0.100000E+01   0.000000E+00   S
  |    63   0.100000E+01   0.000000E+00   W
  |    64   0.100000E+01   0.000000E+00   S
  |    65   0.100000E+01   0.000000E+00   S
  |    66   0.100000E+01   0.000000E+00   W
  |    67   0.100000E+01   0.000000E+00   S
  |    68   0.100000E+01   0.000000E+00   S
  |    69   0.100000E+01   0.000000E+00   W
  |    70   0.100000E+01   0.000000E+00   S
  |    71   0.100000E+01   0.000000E+00   S
  |    72   0.100000E+01   0.000000E+00   W
  |    73   0.100000E+01   0.000000E+00   S
  |    74   0.100000E+01   0.000000E+00   S

 
  Finished reading input file 'control.in'.
 

------------------------------------------------------------
          Reading geometry description geometry.in.
------------------------------------------------------------
 
  Consistency checks for stacksize environment parameter are next.
 
  | Maximum stacksize for task 0: unlimited
  | Maximum stacksize for task 1: unlimited
  | Maximum stacksize for task 2: unlimited
  | Maximum stacksize for task 3: unlimited
  | Maximum stacksize for task 4: unlimited
  | Maximum stacksize for task 5: unlimited
  | Maximum stacksize for task 6: unlimited
  | Maximum stacksize for task 7: unlimited
  | Maximum stacksize for task 8: unlimited
  | Maximum stacksize for task 9: unlimited
  | Maximum stacksize for task 10: unlimited
  | Maximum stacksize for task 11: unlimited
  | Maximum stacksize for task 12: unlimited
  | Maximum stacksize for task 13: unlimited
  | Maximum stacksize for task 14: unlimited
  | Maximum stacksize for task 15: unlimited
  | Maximum stacksize for task 16: unlimited
  | Maximum stacksize for task 17: unlimited
  | Maximum stacksize for task 18: unlimited
  | Maximum stacksize for task 19: unlimited
  | Maximum stacksize for task 20: unlimited
  | Maximum stacksize for task 21: unlimited
  | Maximum stacksize for task 22: unlimited
  | Maximum stacksize for task 23: unlimited
  | Maximum stacksize for task 24: unlimited
  | Maximum stacksize for task 25: unlimited
  | Maximum stacksize for task 26: unlimited
  | Maximum stacksize for task 27: unlimited
  | Maximum stacksize for task 28: unlimited
  | Maximum stacksize for task 29: unlimited
  | Maximum stacksize for task 30: unlimited
  | Maximum stacksize for task 31: unlimited
  | Maximum stacksize for task 32: unlimited
  | Maximum stacksize for task 33: unlimited
  | Maximum stacksize for task 34: unlimited
  | Maximum stacksize for task 35: unlimited
  | Maximum stacksize for task 36: unlimited
  | Maximum stacksize for task 37: unlimited
  | Maximum stacksize for task 38: unlimited
  | Maximum stacksize for task 39: unlimited
  | Maximum stacksize for task 40: unlimited
  | Maximum stacksize for task 41: unlimited
  | Maximum stacksize for task 42: unlimited
  | Maximum stacksize for task 43: unlimited
  | Maximum stacksize for task 44: unlimited
  | Maximum stacksize for task 45: unlimited
  | Maximum stacksize for task 46: unlimited
  | Maximum stacksize for task 47: unlimited
  | Maximum stacksize for task 48: unlimited
  | Maximum stacksize for task 49: unlimited
  | Maximum stacksize for task 50: unlimited
  | Maximum stacksize for task 51: unlimited
  | Maximum stacksize for task 52: unlimited
  | Maximum stacksize for task 53: unlimited
  | Maximum stacksize for task 54: unlimited
  | Maximum stacksize for task 55: unlimited
  | Maximum stacksize for task 56: unlimited
  | Maximum stacksize for task 57: unlimited
  | Maximum stacksize for task 58: unlimited
  | Maximum stacksize for task 59: unlimited
  | Maximum stacksize for task 60: unlimited
  | Maximum stacksize for task 61: unlimited
  | Maximum stacksize for task 62: unlimited
  | Maximum stacksize for task 63: unlimited
  | Maximum stacksize for task 64: unlimited
  | Maximum stacksize for task 65: unlimited
  | Maximum stacksize for task 66: unlimited
  | Maximum stacksize for task 67: unlimited
  | Maximum stacksize for task 68: unlimited
  | Maximum stacksize for task 69: unlimited
  | Maximum stacksize for task 70: unlimited
  | Maximum stacksize for task 71: unlimited
  | Maximum stacksize for task 72: unlimited
  | Maximum stacksize for task 73: unlimited
  | Maximum stacksize for task 74: unlimited
  | Maximum stacksize for task 75: unlimited
  | Maximum stacksize for task 76: unlimited
  | Maximum stacksize for task 77: unlimited
  | Maximum stacksize for task 78: unlimited
  | Maximum stacksize for task 79: unlimited
  | Maximum stacksize for task 80: unlimited
  | Maximum stacksize for task 81: unlimited
  | Maximum stacksize for task 82: unlimited
  | Maximum stacksize for task 83: unlimited
  | Maximum stacksize for task 84: unlimited
  | Maximum stacksize for task 85: unlimited
  | Maximum stacksize for task 86: unlimited
  | Maximum stacksize for task 87: unlimited
  | Maximum stacksize for task 88: unlimited
  | Maximum stacksize for task 89: unlimited
  | Maximum stacksize for task 90: unlimited
  | Maximum stacksize for task 91: unlimited
  | Maximum stacksize for task 92: unlimited
  | Maximum stacksize for task 93: unlimited
  | Maximum stacksize for task 94: unlimited
  | Maximum stacksize for task 95: unlimited
  | Maximum stacksize for task 96: unlimited
  | Maximum stacksize for task 97: unlimited
  | Maximum stacksize for task 98: unlimited
  | Maximum stacksize for task 99: unlimited
  | Maximum stacksize for task 100: unlimited
  | Maximum stacksize for task 101: unlimited
  | Maximum stacksize for task 102: unlimited
  | Maximum stacksize for task 103: unlimited
  | Maximum stacksize for task 104: unlimited
  | Maximum stacksize for task 105: unlimited
  | Maximum stacksize for task 106: unlimited
  | Maximum stacksize for task 107: unlimited
  | Maximum stacksize for task 108: unlimited
  | Maximum stacksize for task 109: unlimited
  | Maximum stacksize for task 110: unlimited
  | Maximum stacksize for task 111: unlimited
  | Maximum stacksize for task 112: unlimited
  | Maximum stacksize for task 113: unlimited
  | Maximum stacksize for task 114: unlimited
  | Maximum stacksize for task 115: unlimited
  | Maximum stacksize for task 116: unlimited
  | Maximum stacksize for task 117: unlimited
  | Maximum stacksize for task 118: unlimited
  | Maximum stacksize for task 119: unlimited
  | Maximum stacksize for task 120: unlimited
  | Maximum stacksize for task 121: unlimited
  | Maximum stacksize for task 122: unlimited
  | Maximum stacksize for task 123: unlimited
  | Maximum stacksize for task 124: unlimited
  | Maximum stacksize for task 125: unlimited
  | Maximum stacksize for task 126: unlimited
  | Maximum stacksize for task 127: unlimited
  | Maximum stacksize for task 128: unlimited
  | Maximum stacksize for task 129: unlimited
  | Maximum stacksize for task 130: unlimited
  | Maximum stacksize for task 131: unlimited
  | Maximum stacksize for task 132: unlimited
  | Maximum stacksize for task 133: unlimited
  | Maximum stacksize for task 134: unlimited
  | Maximum stacksize for task 135: unlimited
  | Maximum stacksize for task 136: unlimited
  | Maximum stacksize for task 137: unlimited
  | Maximum stacksize for task 138: unlimited
  | Maximum stacksize for task 139: unlimited
  | Maximum stacksize for task 140: unlimited
  | Maximum stacksize for task 141: unlimited
  | Maximum stacksize for task 142: unlimited
  | Maximum stacksize for task 143: unlimited
  | Maximum stacksize for task 144: unlimited
  | Maximum stacksize for task 145: unlimited
  | Maximum stacksize for task 146: unlimited
  | Maximum stacksize for task 147: unlimited
  | Maximum stacksize for task 148: unlimited
  | Maximum stacksize for task 149: unlimited
  | Maximum stacksize for task 150: unlimited
  | Maximum stacksize for task 151: unlimited
  | Maximum stacksize for task 152: unlimited
  | Maximum stacksize for task 153: unlimited
  | Maximum stacksize for task 154: unlimited
  | Maximum stacksize for task 155: unlimited
  | Maximum stacksize for task 156: unlimited
  | Maximum stacksize for task 157: unlimited
  | Maximum stacksize for task 158: unlimited
  | Maximum stacksize for task 159: unlimited
  | Maximum stacksize for task 160: unlimited
  | Maximum stacksize for task 161: unlimited
  | Maximum stacksize for task 162: unlimited
  | Maximum stacksize for task 163: unlimited
  | Maximum stacksize for task 164: unlimited
  | Maximum stacksize for task 165: unlimited
  | Maximum stacksize for task 166: unlimited
  | Maximum stacksize for task 167: unlimited
  | Maximum stacksize for task 168: unlimited
  | Maximum stacksize for task 169: unlimited
  | Maximum stacksize for task 170: unlimited
  | Maximum stacksize for task 171: unlimited
  | Maximum stacksize for task 172: unlimited
  | Maximum stacksize for task 173: unlimited
  | Maximum stacksize for task 174: unlimited
  | Maximum stacksize for task 175: unlimited
  | Maximum stacksize for task 176: unlimited
  | Maximum stacksize for task 177: unlimited
  | Maximum stacksize for task 178: unlimited
  | Maximum stacksize for task 179: unlimited
  | Maximum stacksize for task 180: unlimited
  | Maximum stacksize for task 181: unlimited
  | Maximum stacksize for task 182: unlimited
  | Maximum stacksize for task 183: unlimited
  | Maximum stacksize for task 184: unlimited
  | Maximum stacksize for task 185: unlimited
  | Maximum stacksize for task 186: unlimited
  | Maximum stacksize for task 187: unlimited
  | Maximum stacksize for task 188: unlimited
  | Maximum stacksize for task 189: unlimited
  | Maximum stacksize for task 190: unlimited
  | Maximum stacksize for task 191: unlimited
  | Maximum stacksize for task 192: unlimited
  | Maximum stacksize for task 193: unlimited
  | Maximum stacksize for task 194: unlimited
  | Maximum stacksize for task 195: unlimited
  | Maximum stacksize for task 196: unlimited
  | Maximum stacksize for task 197: unlimited
  | Maximum stacksize for task 198: unlimited
  | Maximum stacksize for task 199: unlimited
  | Maximum stacksize for task 200: unlimited
  | Maximum stacksize for task 201: unlimited
  | Maximum stacksize for task 202: unlimited
  | Maximum stacksize for task 203: unlimited
  | Maximum stacksize for task 204: unlimited
  | Maximum stacksize for task 205: unlimited
  | Maximum stacksize for task 206: unlimited
  | Maximum stacksize for task 207: unlimited
  | Maximum stacksize for task 208: unlimited
  | Maximum stacksize for task 209: unlimited
  | Maximum stacksize for task 210: unlimited
  | Maximum stacksize for task 211: unlimited
  | Maximum stacksize for task 212: unlimited
  | Maximum stacksize for task 213: unlimited
  | Maximum stacksize for task 214: unlimited
  | Maximum stacksize for task 215: unlimited
  | Maximum stacksize for task 216: unlimited
  | Maximum stacksize for task 217: unlimited
  | Maximum stacksize for task 218: unlimited
  | Maximum stacksize for task 219: unlimited
  | Maximum stacksize for task 220: unlimited
  | Maximum stacksize for task 221: unlimited
  | Maximum stacksize for task 222: unlimited
  | Maximum stacksize for task 223: unlimited
  | Maximum stacksize for task 224: unlimited
  | Maximum stacksize for task 225: unlimited
  | Maximum stacksize for task 226: unlimited
  | Maximum stacksize for task 227: unlimited
  | Maximum stacksize for task 228: unlimited
  | Maximum stacksize for task 229: unlimited
  | Maximum stacksize for task 230: unlimited
  | Maximum stacksize for task 231: unlimited
  | Maximum stacksize for task 232: unlimited
  | Maximum stacksize for task 233: unlimited
  | Maximum stacksize for task 234: unlimited
  | Maximum stacksize for task 235: unlimited
  | Maximum stacksize for task 236: unlimited
  | Maximum stacksize for task 237: unlimited
  | Maximum stacksize for task 238: unlimited
  | Maximum stacksize for task 239: unlimited
  | Maximum stacksize for task 240: unlimited
  | Maximum stacksize for task 241: unlimited
  | Maximum stacksize for task 242: unlimited
  | Maximum stacksize for task 243: unlimited
  | Maximum stacksize for task 244: unlimited
  | Maximum stacksize for task 245: unlimited
  | Maximum stacksize for task 246: unlimited
  | Maximum stacksize for task 247: unlimited
  | Maximum stacksize for task 248: unlimited
  | Maximum stacksize for task 249: unlimited
  | Maximum stacksize for task 250: unlimited
  | Maximum stacksize for task 251: unlimited
  | Maximum stacksize for task 252: unlimited
  | Maximum stacksize for task 253: unlimited
  | Maximum stacksize for task 254: unlimited
  | Maximum stacksize for task 255: unlimited
  | Maximum stacksize for task 256: unlimited
  | Maximum stacksize for task 257: unlimited
  | Maximum stacksize for task 258: unlimited
  | Maximum stacksize for task 259: unlimited
  | Maximum stacksize for task 260: unlimited
  | Maximum stacksize for task 261: unlimited
  | Maximum stacksize for task 262: unlimited
  | Maximum stacksize for task 263: unlimited
  | Maximum stacksize for task 264: unlimited
  | Maximum stacksize for task 265: unlimited
  | Maximum stacksize for task 266: unlimited
  | Maximum stacksize for task 267: unlimited
  | Maximum stacksize for task 268: unlimited
  | Maximum stacksize for task 269: unlimited
  | Maximum stacksize for task 270: unlimited
  | Maximum stacksize for task 271: unlimited
  | Maximum stacksize for task 272: unlimited
  | Maximum stacksize for task 273: unlimited
  | Maximum stacksize for task 274: unlimited
  | Maximum stacksize for task 275: unlimited
  | Maximum stacksize for task 276: unlimited
  | Maximum stacksize for task 277: unlimited
  | Maximum stacksize for task 278: unlimited
  | Maximum stacksize for task 279: unlimited
  | Maximum stacksize for task 280: unlimited
  | Maximum stacksize for task 281: unlimited
  | Maximum stacksize for task 282: unlimited
  | Maximum stacksize for task 283: unlimited
  | Maximum stacksize for task 284: unlimited
  | Maximum stacksize for task 285: unlimited
  | Maximum stacksize for task 286: unlimited
  | Maximum stacksize for task 287: unlimited
  | Current stacksize for task 0: unlimited
  | Current stacksize for task 1: unlimited
  | Current stacksize for task 2: unlimited
  | Current stacksize for task 3: unlimited
  | Current stacksize for task 4: unlimited
  | Current stacksize for task 5: unlimited
  | Current stacksize for task 6: unlimited
  | Current stacksize for task 7: unlimited
  | Current stacksize for task 8: unlimited
  | Current stacksize for task 9: unlimited
  | Current stacksize for task 10: unlimited
  | Current stacksize for task 11: unlimited
  | Current stacksize for task 12: unlimited
  | Current stacksize for task 13: unlimited
  | Current stacksize for task 14: unlimited
  | Current stacksize for task 15: unlimited
  | Current stacksize for task 16: unlimited
  | Current stacksize for task 17: unlimited
  | Current stacksize for task 18: unlimited
  | Current stacksize for task 19: unlimited
  | Current stacksize for task 20: unlimited
  | Current stacksize for task 21: unlimited
  | Current stacksize for task 22: unlimited
  | Current stacksize for task 23: unlimited
  | Current stacksize for task 24: unlimited
  | Current stacksize for task 25: unlimited
  | Current stacksize for task 26: unlimited
  | Current stacksize for task 27: unlimited
  | Current stacksize for task 28: unlimited
  | Current stacksize for task 29: unlimited
  | Current stacksize for task 30: unlimited
  | Current stacksize for task 31: unlimited
  | Current stacksize for task 32: unlimited
  | Current stacksize for task 33: unlimited
  | Current stacksize for task 34: unlimited
  | Current stacksize for task 35: unlimited
  | Current stacksize for task 36: unlimited
  | Current stacksize for task 37: unlimited
  | Current stacksize for task 38: unlimited
  | Current stacksize for task 39: unlimited
  | Current stacksize for task 40: unlimited
  | Current stacksize for task 41: unlimited
  | Current stacksize for task 42: unlimited
  | Current stacksize for task 43: unlimited
  | Current stacksize for task 44: unlimited
  | Current stacksize for task 45: unlimited
  | Current stacksize for task 46: unlimited
  | Current stacksize for task 47: unlimited
  | Current stacksize for task 48: unlimited
  | Current stacksize for task 49: unlimited
  | Current stacksize for task 50: unlimited
  | Current stacksize for task 51: unlimited
  | Current stacksize for task 52: unlimited
  | Current stacksize for task 53: unlimited
  | Current stacksize for task 54: unlimited
  | Current stacksize for task 55: unlimited
  | Current stacksize for task 56: unlimited
  | Current stacksize for task 57: unlimited
  | Current stacksize for task 58: unlimited
  | Current stacksize for task 59: unlimited
  | Current stacksize for task 60: unlimited
  | Current stacksize for task 61: unlimited
  | Current stacksize for task 62: unlimited
  | Current stacksize for task 63: unlimited
  | Current stacksize for task 64: unlimited
  | Current stacksize for task 65: unlimited
  | Current stacksize for task 66: unlimited
  | Current stacksize for task 67: unlimited
  | Current stacksize for task 68: unlimited
  | Current stacksize for task 69: unlimited
  | Current stacksize for task 70: unlimited
  | Current stacksize for task 71: unlimited
  | Current stacksize for task 72: unlimited
  | Current stacksize for task 73: unlimited
  | Current stacksize for task 74: unlimited
  | Current stacksize for task 75: unlimited
  | Current stacksize for task 76: unlimited
  | Current stacksize for task 77: unlimited
  | Current stacksize for task 78: unlimited
  | Current stacksize for task 79: unlimited
  | Current stacksize for task 80: unlimited
  | Current stacksize for task 81: unlimited
  | Current stacksize for task 82: unlimited
  | Current stacksize for task 83: unlimited
  | Current stacksize for task 84: unlimited
  | Current stacksize for task 85: unlimited
  | Current stacksize for task 86: unlimited
  | Current stacksize for task 87: unlimited
  | Current stacksize for task 88: unlimited
  | Current stacksize for task 89: unlimited
  | Current stacksize for task 90: unlimited
  | Current stacksize for task 91: unlimited
  | Current stacksize for task 92: unlimited
  | Current stacksize for task 93: unlimited
  | Current stacksize for task 94: unlimited
  | Current stacksize for task 95: unlimited
  | Current stacksize for task 96: unlimited
  | Current stacksize for task 97: unlimited
  | Current stacksize for task 98: unlimited
  | Current stacksize for task 99: unlimited
  | Current stacksize for task 100: unlimited
  | Current stacksize for task 101: unlimited
  | Current stacksize for task 102: unlimited
  | Current stacksize for task 103: unlimited
  | Current stacksize for task 104: unlimited
  | Current stacksize for task 105: unlimited
  | Current stacksize for task 106: unlimited
  | Current stacksize for task 107: unlimited
  | Current stacksize for task 108: unlimited
  | Current stacksize for task 109: unlimited
  | Current stacksize for task 110: unlimited
  | Current stacksize for task 111: unlimited
  | Current stacksize for task 112: unlimited
  | Current stacksize for task 113: unlimited
  | Current stacksize for task 114: unlimited
  | Current stacksize for task 115: unlimited
  | Current stacksize for task 116: unlimited
  | Current stacksize for task 117: unlimited
  | Current stacksize for task 118: unlimited
  | Current stacksize for task 119: unlimited
  | Current stacksize for task 120: unlimited
  | Current stacksize for task 121: unlimited
  | Current stacksize for task 122: unlimited
  | Current stacksize for task 123: unlimited
  | Current stacksize for task 124: unlimited
  | Current stacksize for task 125: unlimited
[...]
  |    31       73.523368        0.476632       10.275935       24.721966       24.382713       14.142755
  |    32       16.241498       -0.241498        5.862466       10.088183        0.245144        0.045706
  |    33       16.239737       -0.239737        5.860910       10.083793        0.248552        0.046482
  |    34       73.548589        0.451411       10.277583       24.726008       24.401500       14.143499
  |    35       16.253900       -0.253900        5.864421       10.094559        0.249469        0.045451
  |    36       16.220644       -0.220644        5.857865       10.065282        0.250817        0.046681
  |    37       73.576720        0.423280       10.354096       24.725681       24.371762       14.125181
  |    38       16.237640       -0.237640        5.851949       10.064486        0.268414        0.052790
  |    39       73.548785        0.451215       10.277581       24.726139       24.401565       14.143500
  |    40       16.253975       -0.253975        5.864467       10.094577        0.249481        0.045450
  |    41       16.220533       -0.220533        5.857839       10.065215        0.250800        0.046679
  |    42       73.523360        0.476640       10.275917       24.721998       24.382690       14.142755
  |    43       16.241538       -0.241538        5.862481       10.088204        0.245148        0.045706
  |    44       16.239727       -0.239727        5.860910       10.083788        0.248547        0.046481
  |    45       73.518809        0.481191       10.273416       24.719992       24.383665       14.141735
  |    46       16.240861       -0.240861        5.862601       10.085903        0.246331        0.046025
  |    47       16.238331       -0.238331        5.860809       10.080229        0.250357        0.046937
  |    48       73.521092        0.478908       10.270346       24.717046       24.393922       14.139778
  |    49       16.242462       -0.242462        5.862896       10.085645        0.247755        0.046165
  |    50       16.238879       -0.238879        5.859990       10.077677        0.253636        0.047576
  |    51       73.576708        0.423292       10.354096       24.725673       24.371759       14.125181
  |    52       16.254080       -0.254080        5.864493       10.094641        0.249491        0.045455
  |    53       16.220632       -0.220632        5.857867       10.065279        0.250807        0.046679
  |    54       73.576668        0.423332       10.354056       24.725669       24.371763       14.125180
  |    55       16.253981       -0.253981        5.864469       10.094584        0.249478        0.045450
  |    56       16.220536       -0.220536        5.857840       10.065220        0.250797        0.046678
  |    57       73.521116        0.478884       10.270388       24.717010       24.393942       14.139777
  |    58       16.242411       -0.242411        5.862885       10.085603        0.247759        0.046164
  |    59       16.238764       -0.238764        5.859966       10.077602        0.253624        0.047572
  |    60       73.519017        0.480983       10.272878       24.719334       24.384873       14.141932
  |    61       16.240863       -0.240863        5.862602       10.085905        0.246332        0.046025
  |    62       16.238318       -0.238318        5.860807       10.080219        0.250355        0.046937
  |    63       73.518994        0.481006       10.272847       24.719358       24.384856       14.141932
  |    64       16.240898       -0.240898        5.862612       10.085924        0.246335        0.046026
  |    65       16.238353       -0.238353        5.860814       10.080246        0.250355        0.046937
  |    66       73.520977        0.479023       10.270261       24.717074       24.393865       14.139777
  |    67       16.241608       -0.241608        5.862508       10.088232        0.245159        0.045709
  |    68       16.239758       -0.239758        5.860918       10.083811        0.248546        0.046483
  |    69       73.548776        0.451224       10.277576       24.726140       24.401561       14.143499
  |    70       16.235325       -0.235325        5.861645       10.081788        0.246153        0.045738
  |    71       16.242601       -0.242601        5.862527       10.088696        0.245772        0.045606
  |    72       73.521110        0.478890       10.270389       24.717011       24.393933       14.139776
  |    73       16.241544       -0.241544        5.862482       10.088211        0.245145        0.045705
  |    74       16.239715       -0.239715        5.860910       10.083780        0.248544        0.046481
  |
  | Total     2634.000000       -0.000000
 
  Summary of the per-atom spin analysis:
  |
  |  atom   spin      l=0         l=1         l=2         l=3
  |     1    0.000000    0.000000    0.000000    0.000000    0.000000
  |     2   -0.000000   -0.000000   -0.000000    0.000000    0.000000
  |     3   -0.000000   -0.000000   -0.000000    0.000000    0.000000
  |     4    0.000000    0.000000    0.000000    0.000000    0.000000
  |     5   -0.000000   -0.000000   -0.000000    0.000000    0.000000
  |     6   -0.000000   -0.000000   -0.000000    0.000000    0.000000
  |     7    0.000000    0.000000    0.000000    0.000000    0.000000
  |     8   -0.000000   -0.000000   -0.000000    0.000000    0.000000
  |     9   -0.000000   -0.000000   -0.000000    0.000000    0.000000
  |    10    0.000000    0.000000    0.000000    0.000000    0.000000
  |    11   -0.000000   -0.000000   -0.000000    0.000000    0.000000
  |    12   -0.000000   -0.000000   -0.000000    0.000000    0.000000
  |    13    0.000000    0.000000    0.000000    0.000000    0.000000
  |    14   -0.000000   -0.000000   -0.000000    0.000000    0.000000
  |    15   -0.000000   -0.000000   -0.000000    0.000000    0.000000
  |    16    0.000000    0.000000    0.000000    0.000000    0.000000
  |    17   -0.000000   -0.000000   -0.000000    0.000000    0.000000
  |    18   -0.000000   -0.000000   -0.000000    0.000000    0.000000
  |    19    0.000000    0.000000    0.000000    0.000000    0.000000
  |    20   -0.000000   -0.000000   -0.000000    0.000000    0.000000
  |    21   -0.000000   -0.000000   -0.000000    0.000000    0.000000
  |    22    0.000000    0.000000    0.000000    0.000000    0.000000
  |    23   -0.000000   -0.000000   -0.000000    0.000000    0.000000
  |    24   -0.000000   -0.000000   -0.000000    0.000000    0.000000
  |    25    0.000000    0.000000    0.000000    0.000000    0.000000
  |    26   -0.000000   -0.000000   -0.000000    0.000000    0.000000
  |    27   -0.000000   -0.000000   -0.000000    0.000000    0.000000
  |    28    0.000000    0.000000    0.000000    0.000000    0.000000
  |    29   -0.000000   -0.000000   -0.000000    0.000000    0.000000
  |    30   -0.000000   -0.000000   -0.000000    0.000000    0.000000
  |    31    0.000000    0.000000    0.000000    0.000000    0.000000
  |    32   -0.000000   -0.000000   -0.000000    0.000000    0.000000
  |    33   -0.000000   -0.000000   -0.000000    0.000000    0.000000
  |    34    0.000001    0.000000    0.000000    0.000000   -0.000000
  |    35   -0.000000   -0.000000   -0.000000    0.000000    0.000000
  |    36   -0.000000   -0.000000   -0.000000    0.000000    0.000000
  |    37    0.000000    0.000000    0.000000    0.000000   -0.000000
  |    38   -0.000000   -0.000000   -0.000000   -0.000000   -0.000000
  |    39    0.000001    0.000000    0.000000    0.000000   -0.000000
  |    40   -0.000000   -0.000000   -0.000000    0.000000    0.000000
  |    41   -0.000000   -0.000000   -0.000000    0.000000    0.000000
  |    42    0.000000    0.000000    0.000000    0.000000    0.000000
  |    43   -0.000000   -0.000000   -0.000000    0.000000    0.000000
  |    44   -0.000000   -0.000000   -0.000000    0.000000    0.000000
  |    45    0.000000    0.000000    0.000000    0.000000    0.000000
  |    46   -0.000000   -0.000000   -0.000000    0.000000    0.000000
  |    47   -0.000000   -0.000000   -0.000000    0.000000    0.000000
  |    48    0.000000    0.000000    0.000000    0.000000    0.000000
  |    49   -0.000000   -0.000000   -0.000000    0.000000    0.000000
  |    50   -0.000000   -0.000000   -0.000000    0.000000    0.000000
  |    51    0.000000    0.000000    0.000000    0.000000   -0.000000
  |    52   -0.000000   -0.000000   -0.000000    0.000000    0.000000
  |    53   -0.000000   -0.000000   -0.000000    0.000000    0.000000
  |    54    0.000000    0.000000    0.000000    0.000000   -0.000000
  |    55   -0.000000   -0.000000   -0.000000    0.000000    0.000000
  |    56   -0.000000   -0.000000   -0.000000    0.000000    0.000000
  |    57    0.000000    0.000000    0.000000    0.000000    0.000000
  |    58   -0.000000   -0.000000   -0.000000    0.000000    0.000000
  |    59   -0.000000   -0.000000   -0.000000    0.000000    0.000000
  |    60    0.000000    0.000000    0.000000    0.000000    0.000000
  |    61   -0.000000   -0.000000   -0.000000    0.000000    0.000000
  |    62   -0.000000   -0.000000   -0.000000    0.000000    0.000000
  |    63    0.000000    0.000000    0.000000    0.000000    0.000000
  |    64   -0.000000   -0.000000   -0.000000    0.000000    0.000000
  |    65   -0.000000   -0.000000   -0.000000    0.000000    0.000000
  |    66    0.000000    0.000000    0.000000    0.000000    0.000000
  |    67   -0.000000   -0.000000   -0.000000    0.000000    0.000000
  |    68   -0.000000   -0.000000   -0.000000    0.000000    0.000000
  |    69    0.000001    0.000000    0.000000    0.000000   -0.000000
  |    70   -0.000000   -0.000000   -0.000000    0.000000    0.000000
  |    71   -0.000000   -0.000000   -0.000000    0.000000    0.000000
  |    72    0.000000    0.000000    0.000000    0.000000    0.000000
  |    73   -0.000000   -0.000000   -0.000000    0.000000    0.000000
  |    74   -0.000000   -0.000000   -0.000000    0.000000    0.000000
  |
  | Total   -0.000000
 
  Calculating angular momentum projected density of states ...
  | Chemical potential is  -5.183830 eV.
  | writing   projected DOS (shifted by the chemical potential) for species Se to file Se_l_proj_dos_tetrahedron.dat.
  | writing   projected DOS (raw data) for species Se to file Se_l_proj_dos_tetrahedron_raw.dat.
  | writing   projected DOS (shifted by the chemical potential) for species S to file S_l_proj_dos_tetrahedron.dat.
  | writing   projected DOS (raw data) for species S to file S_l_proj_dos_tetrahedron_raw.dat.
  | writing   projected DOS (shifted by the chemical potential) for species Mo to file Mo_l_proj_dos_tetrahedron.dat.
  | writing   projected DOS (raw data) for species Mo to file Mo_l_proj_dos_tetrahedron_raw.dat.
  | writing   projected DOS (shifted by the chemical potential) for species W to file W_l_proj_dos_tetrahedron.dat.
  | writing   projected DOS (raw data) for species W to file W_l_proj_dos_tetrahedron_raw.dat.

  Mulliken analysis                                       :  max(cpu_time)    wall_clock(cpu1)
  | Time for Mulliken analysis (scalar relativistic)      :          0.696               0.749
  | Time for Mulliken analysis (spin-orbit coupled)       :          1.771               1.778
  | Total time for Mulliken analysis                      :          2.467               2.527
------------------------------------------------------------

------------------------------------------------------------------------------
  Final output of selected total energy values:

  The following output summarizes some interesting total energy values
  at the end of a run (AFTER all relaxation, molecular dynamics, etc.).

  | Total energy of the DFT / Hartree-Fock s.c.f. calculation      :      -11850457.366753984 eV
  | Final zero-broadening corrected energy (caution - metals only) :      -11850457.366753984 eV
  | Total energy after non-SC SOC correction (DO NOT USE)          :      -11850487.315566128 eV
  | For reference only, the value of 1 Hartree used in FHI-aims is :             27.211384500 eV
  | For reference only, the overall average (free atom contribution
  | + realspace contribution) of the electrostatic potential after
  | s.c.f. convergence is                                          :             -1.201604245 eV

  Before relying on these values, please be sure to understand exactly which
  total energy value is referred to by a given number. Different objects may
  all carry the same name 'total energy'. Definitions:

  Total energy of the DFT / Hartree-Fock s.c.f. calculation:
  | Note that this energy does not include ANY quantities calculated after the
  | s.c.f. cycle, in particular not ANY RPA, MP2, etc. many-body perturbation terms.

  Final zero-broadening corrected energy:
  | For metallic systems only, a broadening of the occupation numbers at the Fermi
  | level can be extrapolated back to zero broadening by an electron-gas inspired
  | formula. For all systems that are not real metals, this value can be
  | meaningless and should be avoided.

------------------------------------------------------------------------------
  Methods described in the following list of references were used in this FHI-aims run.
  If you publish the results, please make sure to cite these reference if they apply.
  FHI-aims is an academic code, and for our developers (often, Ph.D. students
  and postdocs), scientific credit in the community is essential.
  Thank you for helping us!

  For any use of FHI-aims, please cite:

    Volker Blum, Ralf Gehrke, Felix Hanke, Paula Havu, Ville Havu,
    Xinguo Ren, Karsten Reuter, and Matthias Scheffler
    'Ab initio molecular simulations with numeric atom-centered orbitals'
    Computer Physics Communications 180, 2175-2196 (2009)
    http://doi.org/10.1016/j.cpc.2009.06.022


  For Hartree-Fock, hybrid functionals, or many-body perturbation theory used in your run, please cite:

    Xinguo Ren, Patrick Rinke, Volker Blum, Juergen Wieferink, Alex Tkatchenko,
    Andrea Sanfilippo, Karsten Reuter, and Matthias Scheffler,
    'Resolution-of-identity approach to Hartree-Fock, hybrid density functionals,
    RPA, MP2, and GW with numeric atom-centered orbital basis functions'
    New Journal of Physics 14, 053020 (2012).
    http://doi.org/10.1088/1367-2630/14/5/053020


  The provided symmetry information was generated with SPGlib:

    Atsushi Togo, Yusuke Seto, Dimitar Pashov
    SPGlib 1.7.3 obtained from http://spglib.sourceforge.net
    Copyright (C) 2008 Atsushi Togo


  For second-variational spin-orbit coupling used in your run, please cite:

    William P. Huhn and Volker Blum,
    'One-hundred-three compound band-structure benchmark of post-self-consistent'
    'spin-orbit coupling treatments in density functional theory'
    Phys. Rev. Materials 1, 033803 (2017).


  The ELSI infrastructure was used in your run to solve the Kohn-Sham electronic structure.
  Please check out http://elsi-interchange.org to learn more.
  If scalability is important for your project, please acknowledge ELSI by citing:

    V. W-z. Yu, F. Corsetti, A. Garcia, W. P. Huhn, M. Jacquelin, W. Jia,
    B. Lange, L. Lin, J. Lu, W. Mi, A. Seifitokaldani, A. Vazquez-Mayagoitia,
    C. Yang, H. Yang, and V. Blum
    'ELSI: A unified software interface for Kohn-Sham electronic structure solvers'
    Computer Physics Communications 222, 267-285 (2018).
    http://doi.org/10.1016/j.cpc.2017.09.007


  For the real-space grid partitioning and parallelization used in this calculation, please cite:

    Ville Havu, Volker Blum, Paula Havu, and Matthias Scheffler,
    'Efficient O(N) integration for all-electron electronic structure calculation'
    'using numerically tabulated basis functions'
    Journal of Computational Physics 228, 8367-8379 (2009).
    http://doi.org/10.1016/j.jcp.2009.08.008


  The high-level electronic structure method used in your calculation
  employed our efficient localized resolution of identity for the Coulomb operator.
  Some calculations, especially large-scale hybrid density functional theory,
  are only possible thanks to this development. For this feature, please cite:

    Arvid Ihrig, Juergen Wieferink, Igor Ying Zhang, Matti Ropo, Xinguo Ren,
    Patrick Rinke, Matthias Scheffler, and Volker Blum,
    'Accurate localized resolution of identity approach for linear-scaling
    hybrid density functionals and for many-body perturbation theory'
    New Journal of Physics 117, 093020 (2015).
    http://doi.org/10.1088/1367-2630/17/9/093020

  Of course, there are many other important community references, e.g., those cited in the
  above references. Our list is limited to references that describe implementations in the
  FHI-aims code. The reason is purely practical (length of this list) - please credit others as well.

------------------------------------------------------------
          Leaving FHI-aims.
          Date     :  20221005, Time     :  054152.728

          Computational steps:
          | Number of self-consistency cycles          :           31
          | Number of SCF (re)initializations          :            1

          Detailed time accounting                     :  max(cpu_time)    wall_clock(cpu1)
          | Total time                                  :     5038.811 s        5039.176 s
          | Preparation time                            :        1.517 s           1.518 s
          | Boundary condition initalization            :        1.499 s           1.499 s
          | Grid partitioning                           :        2.297 s           2.298 s
          | Preloading free-atom quantities on grid     :        3.671 s           3.675 s
          | Free-atom superposition energy              :        0.047 s           0.047 s
          | Total time for integrations                 :       49.106 s          49.107 s
          | Product basis setup: Total time             :      474.667 s         474.676 s
          | Total time evaluating exchange matrix       :     4155.755 s        4154.929 s
          | Total time for solution of K.-S. equations  :      131.177 s         131.186 s
          | Total time for density & force components   :      155.949 s         155.950 s
          | Total time for mixing                       :        0.219 s           0.216 s
          | Total time for Hartree multipole update     :        0.393 s           0.396 s
          | Total time for Hartree multipole sum        :       36.455 s          36.464 s
          | Total time for total energy evaluation      :        0.071 s           0.094 s
          | Total time NSC force correction             :        3.434 s           3.434 s
          | Total time for scaled ZORA corrections      :        0.000 s           0.000 s
          | Total time for vdW correction               :        5.414 s           5.419 s
          | Total time for perturbative SOC             :       14.763 s          14.764 s
          | Total time for Mulliken analysis            :        2.508 s           2.527 s

          Partial memory accounting:
          | Residual value for overall tracked memory usage across tasks:     0.000000 MB (should be 0.000000 MB)
          | Peak values for overall tracked memory usage:
          |   Minimum:      646.046 MB (on task 155 after allocating potential_shell)
          |   Maximum:     1533.810 MB (on task 276 after allocating potential_shell)
          |   Average:      927.486 MB
          | Largest tracked array allocation:
          |   Minimum:      131.973 MB (ovlp3fn for atom on task   0)
          |   Maximum:      313.241 MB (ovlp3fn for atom on task 276)
          |   Average:      168.872 MB
          Note:  These values currently only include a subset of arrays which are explicitly tracked.
          The "true" memory usage will be greater.

          Have a nice day.
------------------------------------------------------------
