------------------------------------------------------------
          Invoking FHI-aims ...

          When using FHI-aims, please cite the following reference:

            Volker Blum, Ralf Gehrke, Felix Hanke, Paula Havu,
            Ville Havu, Xinguo Ren, Karsten Reuter, and Matthias Scheffler,
            'Ab Initio Molecular Simulations with Numeric Atom-Centered Orbitals',
            Computer Physics Communications 180, 2175-2196 (2009)

          In addition, many other developments in FHI-aims are likely important for
          your particular application. A partial list of references is given at the end of
          this file. Thank you for giving credit to the authors of these developments.

          For any questions about FHI-aims, please visit our slack channel at

            https://fhi-aims.slack.com

          and our main development and support site at

            https://aims-git.rz-berlin.mpg.de .

          The latter site, in particular, has a wiki to collect information, as well
          as an issue tracker to log discussions, suggest improvements, and report issues
          or bugs. https://aims-git.rz-berlin.mpg.de is also the main development site
          of the project and all new and updated code versions can be obtained there.
          Please send an email to aims-coordinators@fhi-berlin.mpg.de and we will add
          you to these sites. They are for you and everyone is welcome there.

------------------------------------------------------------



  Date     :  20220118, Time     :  172427.841
  Time zero on CPU 1             :   0.318099000000000E+00  s.
  Internal wall clock time zero  :           411758667.841  s.

  FHI-aims created a unique identifier for this run for later identification
  aims_uuid : 642F43CB-706E-4B3E-A186-BDBC37F3C90F

  Build configuration of the current instance of FHI-aims
  -------------------------------------------------------
  FHI-aims version      : 210513
  Commit number         : 300bfe3f4
  CMake host system     : Linux-4.12.14-122.63-default
  CMake version         : 3.5.2
  Fortran compiler      : /mpcdf/soft/SLE_12/packages/x86_64/intel_parallel_studio/2020.1/compilers_and_libraries_2020.1.217/linux/mpi/intel64/bin/mpiifort (Intel) version 19.1.0.20200306
  Fortran compiler flags: -O3 -ip -fp-model precise
  C compiler            : /mpcdf/soft/SLE_12/packages/x86_64/intel/19.1.1/bin/icc (Intel) version 19.1.0.20200306
  C compiler flags      : -O3 -ip -fp-model precise -std=gnu99
  C++ compiler          : /mpcdf/soft/SLE_12/packages/x86_64/intel/19.1.1/bin/icpc (Intel) version 19.1.0.20200306
  C++ compiler flags    : -O3 -ip -fp-model precise -std=gnu99
  Using MPI
  Using ScaLAPACK
  Using LibXC
  Using i-PI
  Using RLSY
  Linking against: /mpcdf/soft/SLE_12/packages/x86_64/intel_parallel_studio/2020.1/mkl/lib/intel64/libmkl_intel_lp64.so
                   /mpcdf/soft/SLE_12/packages/x86_64/intel_parallel_studio/2020.1/mkl/lib/intel64/libmkl_sequential.so
                   /mpcdf/soft/SLE_12/packages/x86_64/intel_parallel_studio/2020.1/mkl/lib/intel64/libmkl_core.so
                   /mpcdf/soft/SLE_12/packages/x86_64/intel_parallel_studio/2020.1/mkl/lib/intel64/libmkl_blacs_intelmpi_lp64.so
                   /mpcdf/soft/SLE_12/packages/x86_64/intel_parallel_studio/2020.1/mkl/lib/intel64/libmkl_scalapack_lp64.so

  Using       80 parallel tasks.
  Task        0 on host co6204 reporting.
  Task        1 on host co6204 reporting.
  Task        2 on host co6204 reporting.
  Task        3 on host co6204 reporting.
  Task        4 on host co6204 reporting.
  Task        5 on host co6204 reporting.
  Task        6 on host co6204 reporting.
  Task        7 on host co6204 reporting.
  Task        8 on host co6204 reporting.
  Task        9 on host co6204 reporting.
  Task       10 on host co6204 reporting.
  Task       11 on host co6204 reporting.
  Task       12 on host co6204 reporting.
  Task       13 on host co6204 reporting.
  Task       14 on host co6204 reporting.
  Task       15 on host co6204 reporting.
  Task       16 on host co6204 reporting.
  Task       17 on host co6204 reporting.
  Task       18 on host co6204 reporting.
  Task       19 on host co6204 reporting.
  Task       20 on host co6204 reporting.
  Task       21 on host co6204 reporting.
  Task       22 on host co6204 reporting.
  Task       23 on host co6204 reporting.
  Task       24 on host co6204 reporting.
  Task       25 on host co6204 reporting.
  Task       26 on host co6204 reporting.
  Task       27 on host co6204 reporting.
  Task       28 on host co6204 reporting.
  Task       29 on host co6204 reporting.
  Task       30 on host co6204 reporting.
  Task       31 on host co6204 reporting.
  Task       32 on host co6204 reporting.
  Task       33 on host co6204 reporting.
  Task       34 on host co6204 reporting.
  Task       35 on host co6204 reporting.
  Task       36 on host co6204 reporting.
  Task       37 on host co6204 reporting.
  Task       38 on host co6204 reporting.
  Task       39 on host co6204 reporting.
  Task       40 on host co6207 reporting.
  Task       41 on host co6207 reporting.
  Task       42 on host co6207 reporting.
  Task       43 on host co6207 reporting.
  Task       44 on host co6207 reporting.
  Task       45 on host co6207 reporting.
  Task       46 on host co6207 reporting.
  Task       47 on host co6207 reporting.
  Task       48 on host co6207 reporting.
  Task       49 on host co6207 reporting.
  Task       50 on host co6207 reporting.
  Task       51 on host co6207 reporting.
  Task       52 on host co6207 reporting.
  Task       53 on host co6207 reporting.
  Task       54 on host co6207 reporting.
  Task       55 on host co6207 reporting.
  Task       56 on host co6207 reporting.
  Task       57 on host co6207 reporting.
  Task       58 on host co6207 reporting.
  Task       59 on host co6207 reporting.
  Task       60 on host co6207 reporting.
  Task       61 on host co6207 reporting.
  Task       62 on host co6207 reporting.
  Task       63 on host co6207 reporting.
  Task       64 on host co6207 reporting.
  Task       65 on host co6207 reporting.
  Task       66 on host co6207 reporting.
  Task       67 on host co6207 reporting.
  Task       68 on host co6207 reporting.
  Task       69 on host co6207 reporting.
  Task       70 on host co6207 reporting.
  Task       71 on host co6207 reporting.
  Task       72 on host co6207 reporting.
  Task       73 on host co6207 reporting.
  Task       74 on host co6207 reporting.
  Task       75 on host co6207 reporting.
  Task       76 on host co6207 reporting.
  Task       77 on host co6207 reporting.
  Task       78 on host co6207 reporting.
  Task       79 on host co6207 reporting.

  Performing system and environment tests:
  | Environment variable OMP_NUM_THREADS correctly set to 1.
  | Checking for ScaLAPACK...
  | Testing pdtran()...
  | All pdtran() tests passed.

  Obtaining array dimensions for all initial allocations:
  
  -----------------------------------------------------------------------
  Parsing control.in (first pass over file, find array dimensions only).
  The contents of control.in will be repeated verbatim below
  unless switched off by setting 'verbatim_writeout .false.' .
  in the first line of control.in .
  -----------------------------------------------------------------------
  
  ##### Physical settings  ################
  xc                 pbe
  spin               none
  charge      0.0
  relativistic       atomic_zora scalar
  #elsi_restart read
  # SCF settings
  use_symmetric_forces .true.
  relax_geometry trm 1E-3
  relax_unit_cell fixed_angles
  #relax_unit_cell full
  #vdw_correction_hirshfeld
  harmonic_length_scale 0.09
  energy_tolerance  1E-3
  occupation_type gaussian       0.01
  # k-grid settings  (to be adjusted)
  k_grid  12 12 12
  #empty_states 8
  #use_dipole_correction
  #include_spin_orbit non_self_consistent
  
  mixer   pulay
  n_max_pulay        12 # high for metal
  charge_mix_param   0.1 #low for metal
  many_body_dispersion_nl    beta=0.81
  ################################################################################
  #
  #  FHI-aims code project
  # Volker Blum, Fritz Haber Institute Berlin, 2009
  #
  #  Suggested "tight" defaults for S atom (to be pasted into control.in file)
  #
  #  Revised Jan 04, 2011, following tests (SiC) done by Lydia Nemec:
  #     d and g functions of tier 2 now enabled by default.
  #
  ################################################################################
    species        S
  #     global species definitions
      nucleus             16
      mass                32.065
  #
      l_hartree           6
  #
      cut_pot             4.0          2.0  1.0
      basis_dep_cutoff    1e-4
  #
      radial_base         44 7.0
      radial_multiplier   2
      angular_grids       specified
        division   0.4665  110
        division   0.5810  194
        division   0.7139  302
        division   0.8274  434
  #      division   0.9105  590
  #      division   1.0975  770
  #      division   1.2028  974
  #      outer_grid  974
        outer_grid  434
  ################################################################################
  #
  #  Definition of "minimal" basis
  #
  ################################################################################
  #     valence basis states
      valence      3  s   2.
      valence      3  p   4.
  #     ion occupancy
      ion_occ      3  s   1.
      ion_occ      3  p   3.
  ################################################################################
  #
  #  Suggested additional basis functions. For production calculations,
  #  uncomment them one after another (the most important basis functions are
  #  listed first).
  #
  #  Constructed for dimers: 1.6 A, 1.9 A, 2.5 A, 3.25 A, 4.0 A
  #
  ################################################################################
  #  "First tier" - improvements: -652.81 meV to -45.53 meV
       ionic 3 d auto
       hydro 2 p 1.8
       hydro 4 f 7
       ionic 3 s auto
  #  "Second tier" - improvements: -30.20 meV to -1.74 meV
       hydro 4 d 6.2
       hydro 5 g 10.8
  #     hydro 4 p 4.9
  #     hydro 5 f 10
  #     hydro 1 s 0.8
  #  "Third tier" - improvements: -1.04 meV to -0.20 meV
  #     hydro 3 d 3.9
  #     hydro 3 d 2.7
  #     hydro 5 g 12
  #     hydro 4 p 10.4
  #     hydro 5 f 12.4
  #     hydro 2 s 1.9
  #  "Fourth tier" - improvements: -0.35 meV to -0.06 meV
  #     hydro 4 d 10.4
  #     hydro 4 p 7.2
  #     hydro 4 d 10
  #     hydro 5 g 19.2
  #     hydro 4 s 12
  
  ################################################################################
  #
  # For methods that use the localized form of the "resolution of identity" for
  # the two-electron Coulomb operator (RI_method LVL), particularly Hartree-Fock and
  # hybrid density functional calculations, the highest accuracy can be obtained by
  # uncommenting the line beginning with "for_aux"  below, thus adding an extra g radial
  # function to the construction of the product basis set for the expansion.
  # See Ref. New J. Phys. 17, 093020 (2015) for more information, particularly Figs. 1 and 6.
  #
  ################################################################################
  #
  # for_aux hydro 5 g 6.0
  ################################################################################
  #
  #  FHI-aims code project
  # Volker Blum, Fritz Haber Institute Berlin, 2009
  #
  #  Suggested "tight" defaults for Mo atom (to be pasted into control.in file)
  #
  ################################################################################
    species        Mo
  #     global species definitions
      nucleus             42
      mass                95.94
  #
      l_hartree           6
  #
      cut_pot             4.0  2.0  1.0
      basis_dep_cutoff    1e-4
  #
      radial_base         59 7.0
      radial_multiplier   2
      angular_grids specified
        division   0.3117   50
        division   0.6750  110
        division   1.0351  194
        division   1.2073  302
        division   1.6402  434
  #      division   1.9185  590
  #      division   2.0237  770
  #      division   2.0980  974
  #      division   2.7972 1202
  #      outer_grid  974
        outer_grid  434
  ################################################################################
  #
  #  Definition of "minimal" basis
  #
  ################################################################################
  #     valence basis states
      valence      5  s   1.
      valence      4  p   6.
      valence      4  d   5.
  #     ion occupancy
      ion_occ     5  s   0.
      ion_occ     4  p   6.
      ion_occ     4  d   4.
  ################################################################################
  #
  #  Suggested additional basis functions. For production calculations,
  #  uncomment them one after another (the most important basis functions are
  #  listed first).
  #
  #  Constructed for dimers: 1.675 A, 1.9 A, 2.375 A, 3.00 A, 4.00 A
  #
  ################################################################################
  #  "First tier"  - max. impr. -711.23  meV, min. impr. -21.07 meV
       hydro 4 f 8.4
       hydro 3 d 2.8
       ionic 5 p auto
       hydro 5 g 12
       ionic 5 s auto
  #  "Second tier" - max. impr. -39.38  meV, min. impr. -2.68 meV
  #     hydro 4 f 12.4
  #     hydro 3 d 3.3
  #     hydro 6 h 17.2
  #     hydro 4 f 7.6
  #     hydro 3 p 3.0
  #     hydro 1 s 0.65
  #  "Third tier"  - max. impr. -5.50 meV, min. impr. -0.47 meV
  #     hydro 4 f 29.2
  #     hydro 5 g 11.2
  #     hydro 3 d 6.8
  #     hydro 6 h 14.8
  #     hydro 2 p 2.3
  #     hydro 4 s 3.8
  #  "Fourth tier"  - max. impr. -0.58 meV, min. impr. -0.19 meV
  #     hydro 5 f 6.8
  #     hydro 5 d 14.8
  #     hydro 6 s 7.8
  #     hydro 5 g 20.8
  #     hydro 5 d 10.4
  #     hydro 5 p 9.8
  #  Further functions - -0.17 meV and below
  #     hydro 5 d 3.2
  ################################################################################
  #
  #  FHI-aims code project
  #  Volker Blum, Fritz Haber Institute Berlin, 2009
  #
  #  Suggested "tight" defaults for Au atom (to be pasted into control.in file)
  #
  #  Feb. 16, 2013: Commented out the "h" basis function from tier 1 in the default.
  #                 Au is the only element to have this, and it usually does not
  #                 make a difference. With the advent of hybrid functionals, the
  #                 extra effort is critical.
  #
  ################################################################################
    species        Au
  #     global species definitions
      nucleus             79
      mass                196.966569
  #
      l_hartree           6
  #
      cut_pot             4.0  2.0  1.0
      basis_dep_cutoff    1e-4
  #
      radial_base         73 7.0
      radial_multiplier   2
      angular_grids specified
        division   0.3416   50
        division   0.7206  110
        division   1.1171  194
        division   1.2821  302
        division   1.5560  434
  #      division   2.1046  590
  #      division   2.2363  770
  #      division   2.2710  974
  #      division   2.8078 1202
  #      outer_grid 1202
        outer_grid  434
   ################################################################################
  #
  #  Definition of "minimal" basis
  #
  ################################################################################
  #     valence basis states
      valence      6  s   1.
      valence      5  p   6.
      valence      5  d  10.
      valence      4  f  14.
  #     ion occupancy
      ion_occ     6  s   0.
      ion_occ     5  p   6.
      ion_occ     5  d   9.
      ion_occ     4  f   14.
  ################################################################################
  #
  #  Suggested additional basis functions. For production calculations,
  #  uncomment them one after another (the most important basis functions are
  #  listed first).
  #
  #  Constructed for dimers: 2.10, 2.45, 3.00, 4.00 AA
  #
  ################################################################################
  #  "First tier" - max. impr. -161.60  meV, min. impr. -4.53 meV
       ionic 6 p auto
       hydro 4 f 7.4
       ionic 6 s auto
       hydro 5 g 10
  #     hydro 6 h 12.8
       hydro 3 d 2.5
  #  "Second tier" - max. impr. -2.46  meV, min. impr. -0.28 meV
  #     hydro 5 f 14.8
  #     hydro 4 d 3.9
  #     hydro 3 p 3.3
  #     hydro 1 s 0.45
  #     hydro 5 g 16.4
  #     hydro 6 h 13.6
  #  "Third tier" - max. impr. -0.49  meV, min. impr. -0.09 meV
  #     hydro 4 f 5.2
  #     hydro 4 d 5
  #     hydro 5 g 8
  #     hydro 5 p 8.2
  #     hydro 6 d 12.4
  #     hydro 6 s 14.8
  #  Further basis functions: -0.08 meV and below
  #     hydro 5 f 18.8
  #     hydro 5 g 20
  #    hydro 5 g 15.2
  
  -----------------------------------------------------------------------
  Completed first pass over input file control.in .
  -----------------------------------------------------------------------
  
  
  -----------------------------------------------------------------------
  Parsing geometry.in (first pass over file, find array dimensions only).
  The contents of geometry.in will be repeated verbatim below
  unless switched off by setting 'verbatim_writeout .false.' .
  in the first line of geometry.in .
  -----------------------------------------------------------------------
  
  #=======================================================
  # FHI-aims file: geometry.in
  # Created using the Atomic Simulation Environment (ASE)
  # Tue Jan 18 17:08:51 2022
  #=======================================================
  lattice_vector 0.0000000000000000 2.0000000000000000 2.0000000000000000
  lattice_vector 2.0000000000000000 0.0000000000000000 2.0000000000000000
  lattice_vector 2.0000000000000000 2.0000000000000000 0.0000000000000000
  atom 0.0000000000000000 0.0000000000000000 0.0000000000000000 Au
  
  -----------------------------------------------------------------------
  Completed first pass over input file geometry.in .
  -----------------------------------------------------------------------
  

  Basic array size parameters:
  | Number of species                 :        3
  | Number of atoms                   :        1
  | Number of lattice vectors         :        3
  | Max. basis fn. angular momentum   :        4
  | Max. atomic/ionic basis occupied n:        6
  | Max. number of basis fn. types    :        3
  | Max. radial fns per species/type  :       14
  | Max. logarithmic grid size        :     1488
  | Max. radial integration grid size :      147
  | Max. angular integration grid size:      434
  | Max. angular grid division number :        8
  | Radial grid for Hartree potential :     1488
  | Number of spin channels           :        1

------------------------------------------------------------
          Reading file control.in.
------------------------------------------------------------
  XC: Using PBE gradient-corrected functionals.
  Spin treatment: No spin polarisation.
  Charge =   0.000000E+00: Neutral system requested explicitly.
  Scalar relativistic treatment of kinetic energy: on-site free-atom approximation to ZORA.
  Geometry relaxation: Modified BFGS - TRM (trust radius method) for lattice optimization.
  Convergence accuracy for geometry relaxation: Maximum force <   0.100000E-02 eV/A.
  Assuming qualitatively harmonic for steps shorter than   0.900000E-01 A.
  Max energy increase before discarding BFGS move:   0.100000E-02 eV
  Occupation type: Gaussian broadening, width =   0.100000E-01 eV.
  Found k-point grid:        12        12        12
  Using pulay charge density mixing.
  Pulay mixing - number of memorized iterations:   12
  Charge density mixing - mixing parameter:     0.1000
  Using libMBD for calculating MBD and TS energies
 
  Reading configuration options for species S                   .
  | Found nuclear charge :  16.0000
  | Found atomic mass :    32.0650000000000      amu
  | Found l_max for Hartree potential  :   6
  | Found cutoff potl. onset [A], width [A], scale factor :    4.00000    2.00000    1.00000
  | Threshold for basis-dependent cutoff potential is   0.100000E-03
  | Found data for basic radial integration grid :    44 points, outermost radius =    7.000 A
  | Found multiplier for basic radial grid :   2
  | Found angular grid specification: user-specified.
  | Specified grid contains     5 separate shells.
  | Check grid settings after all constraints further below.
  | Found free-atom valence shell :  3 s   2.000
  | Found free-atom valence shell :  3 p   4.000
  | Found free-ion valence shell :  3 s   1.000
  | Found free-ion valence shell :  3 p   3.000
  | Found ionic basis function :  3 d , default cutoff radius.
  | Found hydrogenic basis function :  2 p   1.800
  | Found hydrogenic basis function :  4 f   7.000
  | Found ionic basis function :  3 s , default cutoff radius.
  | Found hydrogenic basis function :  4 d   6.200
  | Found hydrogenic basis function :  5 g  10.800
  Species S                   : Missing cutoff potential type.
  Defaulting to exp(1/x)/(1-x)^2 type cutoff potential.
  Species S : No 'logarithmic' tag. Using default grid for free atom:
  | Default logarithmic grid data [bohr] : 0.1000E-03 0.1000E+03 0.1012E+01
  | Will include ionic basis functions of  2.0-fold positive S                    ion.
  Species S : On-site basis accuracy parameter (for Gram-Schmidt orthonormalisation) not specified.
  Using default value basis_acc =  0.1000000E-03.
  Species S                   : Using default innermost maximum threshold i_radial=  2 for radial functions.
  Species S                   : Default cutoff onset for free atom density etc. : 0.40000000E+01 AA.
  Species S                   : Basic radial grid will be enhanced according to radial_multiplier =   2, to contain    89 grid points.
 
  Reading configuration options for species Mo                  .
  | Found nuclear charge :  42.0000
  | Found atomic mass :    95.9400000000000      amu
  | Found l_max for Hartree potential  :   6
  | Found cutoff potl. onset [A], width [A], scale factor :    4.00000    2.00000    1.00000
  | Threshold for basis-dependent cutoff potential is   0.100000E-03
  | Found data for basic radial integration grid :    59 points, outermost radius =    7.000 A
  | Found multiplier for basic radial grid :   2
  | Found angular grid specification: user-specified.
  | Specified grid contains     6 separate shells.
  | Check grid settings after all constraints further below.
  | Found free-atom valence shell :  5 s   1.000
  | Found free-atom valence shell :  4 p   6.000
  | Found free-atom valence shell :  4 d   5.000
  | Found free-ion valence shell :  5 s   0.000
  | Found free-ion valence shell :  4 p   6.000
  | Found free-ion valence shell :  4 d   4.000
  | Found hydrogenic basis function :  4 f   8.400
  | Found hydrogenic basis function :  3 d   2.800
  | Found ionic basis function :  5 p , default cutoff radius.
  | Found hydrogenic basis function :  5 g  12.000
  | Found ionic basis function :  5 s , default cutoff radius.
  Species Mo                  : Missing cutoff potential type.
  Defaulting to exp(1/x)/(1-x)^2 type cutoff potential.
  Species Mo: No 'logarithmic' tag. Using default grid for free atom:
  | Default logarithmic grid data [bohr] : 0.1000E-03 0.1000E+03 0.1012E+01
  | Will include ionic basis functions of  2.0-fold positive Mo                   ion.
  Species Mo: On-site basis accuracy parameter (for Gram-Schmidt orthonormalisation) not specified.
  Using default value basis_acc =  0.1000000E-03.
  Species Mo                  : Using default innermost maximum threshold i_radial=  2 for radial functions.
  Species Mo                  : Default cutoff onset for free atom density etc. : 0.40000000E+01 AA.
  Species Mo                  : Basic radial grid will be enhanced according to radial_multiplier =   2, to contain   119 grid points.
 
  Reading configuration options for species Au                  .
  | Found nuclear charge :  79.0000
  | Found atomic mass :    196.966569000000      amu
  | Found l_max for Hartree potential  :   6
  | Found cutoff potl. onset [A], width [A], scale factor :    4.00000    2.00000    1.00000
  | Threshold for basis-dependent cutoff potential is   0.100000E-03
  | Found data for basic radial integration grid :    73 points, outermost radius =    7.000 A
  | Found multiplier for basic radial grid :   2
  | Found angular grid specification: user-specified.
  | Specified grid contains     6 separate shells.
  | Check grid settings after all constraints further below.
  | Found free-atom valence shell :  6 s   1.000
  | Found free-atom valence shell :  5 p   6.000
  | Found free-atom valence shell :  5 d  10.000
  | Found free-atom valence shell :  4 f  14.000
  | Found free-ion valence shell :  6 s   0.000
  | Found free-ion valence shell :  5 p   6.000
  | Found free-ion valence shell :  5 d   9.000
  | Found free-ion valence shell :  4 f  14.000
  | Found ionic basis function :  6 p , default cutoff radius.
  | Found hydrogenic basis function :  4 f   7.400
  | Found ionic basis function :  6 s , default cutoff radius.
  | Found hydrogenic basis function :  5 g  10.000
  | Found hydrogenic basis function :  3 d   2.500
  Species Au                  : Missing cutoff potential type.
  Defaulting to exp(1/x)/(1-x)^2 type cutoff potential.
  Species Au: No 'logarithmic' tag. Using default grid for free atom:
  | Default logarithmic grid data [bohr] : 0.1000E-03 0.1000E+03 0.1012E+01
  | Will include ionic basis functions of  2.0-fold positive Au                   ion.
  Species Au: On-site basis accuracy parameter (for Gram-Schmidt orthonormalisation) not specified.
  Using default value basis_acc =  0.1000000E-03.
  Species Au                  : Using default innermost maximum threshold i_radial=  2 for radial functions.
  Species Au                  : Default cutoff onset for free atom density etc. : 0.40000000E+01 AA.
  Species Au                  : Basic radial grid will be enhanced according to radial_multiplier =   2, to contain   147 grid points.
 
  Finished reading input file 'control.in'.
 
------------------------------------------------------------


------------------------------------------------------------
          Reading geometry description geometry.in.
------------------------------------------------------------
  | The smallest distance between any two atoms is         2.82842712 AA.
  | The first atom of this pair is atom number                      1 .
  | The second atom of this pair is atom number                     1 .
  | Wigner-Seitz cell of the first atom image          -1     0     1 .
  | (The Wigner-Seitz cell of the second atom is 0 0 0  by definition.)

  Symmetry information by spglib:
  | Precision set to  0.1E-04
  | Number of Operations  : 48
  | Space group           : 225
  | International         : Fm-3m
  | Schoenflies           : Oh^5
  Input structure read successfully.
  The structure contains        1 atoms,  and a total of         79.000 electrons.

  Input geometry:
  | Unit cell:
  |        0.00000000        2.00000000        2.00000000
  |        2.00000000        0.00000000        2.00000000
  |        2.00000000        2.00000000        0.00000000
  | Atomic structure:
  |       Atom                x [A]            y [A]            z [A]
  |    1: Species Au            0.00000000        0.00000000        0.00000000

  Lattice parameters for 3D lattice (in Angstroms) :     2.828427    2.828427    2.828427
  Angle(s) between unit vectors (in degrees)       :    60.000000   60.000000   60.000000


  Quantities derived from the lattice vectors:
  | Reciprocal lattice vector 1: -1.570796  1.570796  1.570796
  | Reciprocal lattice vector 2:  1.570796 -1.570796  1.570796
  | Reciprocal lattice vector 3:  1.570796  1.570796 -1.570796
  | Unit cell volume                               :   0.160000E+02  A^3

  Fractional coordinates:
                         L1                L2                L3
       atom_frac         0.00000000        0.00000000        0.00000000  Au

 
  Finished reading input file 'control.in'.
 

------------------------------------------------------------
          Reading geometry description geometry.in.
------------------------------------------------------------
 
  Consistency checks for stacksize environment parameter are next.
 
  | Maximum stacksize for task 0: unlimited
  | Maximum stacksize for task 1: unlimited
  | Maximum stacksize for task 2: unlimited
  | Maximum stacksize for task 3: unlimited
  | Maximum stacksize for task 4: unlimited
  | Maximum stacksize for task 5: unlimited
  | Maximum stacksize for task 6: unlimited
  | Maximum stacksize for task 7: unlimited
  | Maximum stacksize for task 8: unlimited
  | Maximum stacksize for task 9: unlimited
  | Maximum stacksize for task 10: unlimited
  | Maximum stacksize for task 11: unlimited
  | Maximum stacksize for task 12: unlimited
  | Maximum stacksize for task 13: unlimited
  | Maximum stacksize for task 14: unlimited
  | Maximum stacksize for task 15: unlimited
  | Maximum stacksize for task 16: unlimited
  | Maximum stacksize for task 17: unlimited
  | Maximum stacksize for task 18: unlimited
  | Maximum stacksize for task 19: unlimited
  | Maximum stacksize for task 20: unlimited
  | Maximum stacksize for task 21: unlimited
  | Maximum stacksize for task 22: unlimited
  | Maximum stacksize for task 23: unlimited
  | Maximum stacksize for task 24: unlimited
  | Maximum stacksize for task 25: unlimited
  | Maximum stacksize for task 26: unlimited
  | Maximum stacksize for task 27: unlimited
  | Maximum stacksize for task 28: unlimited
  | Maximum stacksize for task 29: unlimited
  | Maximum stacksize for task 30: unlimited
  | Maximum stacksize for task 31: unlimited
  | Maximum stacksize for task 32: unlimited
  | Maximum stacksize for task 33: unlimited
  | Maximum stacksize for task 34: unlimited
  | Maximum stacksize for task 35: unlimited
  | Maximum stacksize for task 36: unlimited
  | Maximum stacksize for task 37: unlimited
  | Maximum stacksize for task 38: unlimited
  | Maximum stacksize for task 39: unlimited
  | Maximum stacksize for task 40: unlimited
  | Maximum stacksize for task 41: unlimited
  | Maximum stacksize for task 42: unlimited
  | Maximum stacksize for task 43: unlimited
  | Maximum stacksize for task 44: unlimited
  | Maximum stacksize for task 45: unlimited
  | Maximum stacksize for task 46: unlimited
  | Maximum stacksize for task 47: unlimited
  | Maximum stacksize for task 48: unlimited
  | Maximum stacksize for task 49: unlimited
  | Maximum stacksize for task 50: unlimited
  | Maximum stacksize for task 51: unlimited
  | Maximum stacksize for task 52: unlimited
  | Maximum stacksize for task 53: unlimited
  | Maximum stacksize for task 54: unlimited
  | Maximum stacksize for task 55: unlimited
  | Maximum stacksize for task 56: unlimited
  | Maximum stacksize for task 57: unlimited
  | Maximum stacksize for task 58: unlimited
  | Maximum stacksize for task 59: unlimited
  | Maximum stacksize for task 60: unlimited
  | Maximum stacksize for task 61: unlimited
  | Maximum stacksize for task 62: unlimited
  | Maximum stacksize for task 63: unlimited
  | Maximum stacksize for task 64: unlimited
  | Maximum stacksize for task 65: unlimited
  | Maximum stacksize for task 66: unlimited
  | Maximum stacksize for task 67: unlimited
  | Maximum stacksize for task 68: unlimited
  | Maximum stacksize for task 69: unlimited
  | Maximum stacksize for task 70: unlimited
  | Maximum stacksize for task 71: unlimited
  | Maximum stacksize for task 72: unlimited
  | Maximum stacksize for task 73: unlimited
  | Maximum stacksize for task 74: unlimited
  | Maximum stacksize for task 75: unlimited
  | Maximum stacksize for task 76: unlimited
  | Maximum stacksize for task 77: unlimited
  | Maximum stacksize for task 78: unlimited
  | Maximum stacksize for task 79: unlimited
  | Current stacksize for task 0: unlimited
  | Current stacksize for task 1: unlimited
  | Current stacksize for task 2: unlimited
  | Current stacksize for task 3: unlimited
  | Current stacksize for task 4: unlimited
  | Current stacksize for task 5: unlimited
  | Current stacksize for task 6: unlimited
  | Current stacksize for task 7: unlimited
  | Current stacksize for task 8: unlimited
  | Current stacksize for task 9: unlimited
  | Current stacksize for task 10: unlimited
  | Current stacksize for task 11: unlimited
  | Current stacksize for task 12: unlimited
  | Current stacksize for task 13: unlimited
  | Current stacksize for task 14: unlimited
  | Current stacksize for task 15: unlimited
  | Current stacksize for task 16: unlimited
  | Current stacksize for task 17: unlimited
  | Current stacksize for task 18: unlimited
  | Current stacksize for task 19: unlimited
  | Current stacksize for task 20: unlimited
  | Current stacksize for task 21: unlimited
  | Current stacksize for task 22: unlimited
  | Current stacksize for task 23: unlimited
  | Current stacksize for task 24: unlimited
  | Current stacksize for task 25: unlimited
  | Current stacksize for task 26: unlimited
  | Current stacksize for task 27: unlimited
  | Current stacksize for task 28: unlimited
  | Current stacksize for task 29: unlimited
  | Current stacksize for task 30: unlimited
  | Current stacksize for task 31: unlimited
  | Current stacksize for task 32: unlimited
  | Current stacksize for task 33: unlimited
  | Current stacksize for task 34: unlimited
  | Current stacksize for task 35: unlimited
  | Current stacksize for task 36: unlimited
  | Current stacksize for task 37: unlimited
  | Current stacksize for task 38: unlimited
  | Current stacksize for task 39: unlimited
  | Current stacksize for task 40: unlimited
  | Current stacksize for task 41: unlimited
  | Current stacksize for task 42: unlimited
  | Current stacksize for task 43: unlimited
  | Current stacksize for task 44: unlimited
  | Current stacksize for task 45: unlimited
  | Current stacksize for task 46: unlimited
  | Current stacksize for task 47: unlimited
  | Current stacksize for task 48: unlimited
  | Current stacksize for task 49: unlimited
  | Current stacksize for task 50: unlimited
  | Current stacksize for task 51: unlimited
  | Current stacksize for task 52: unlimited
  | Current stacksize for task 53: unlimited
  | Current stacksize for task 54: unlimited
  | Current stacksize for task 55: unlimited
  | Current stacksize for task 56: unlimited
  | Current stacksize for task 57: unlimited
  | Current stacksize for task 58: unlimited
  | Current stacksize for task 59: unlimited
  | Current stacksize for task 60: unlimited
  | Current stacksize for task 61: unlimited
  | Current stacksize for task 62: unlimited
  | Current stacksize for task 63: unlimited
  | Current stacksize for task 64: unlimited
  | Current stacksize for task 65: unlimited
  | Current stacksize for task 66: unlimited
  | Current stacksize for task 67: unlimited
  | Current stacksize for task 68: unlimited
  | Current stacksize for task 69: unlimited
  | Current stacksize for task 70: unlimited
  | Current stacksize for task 71: unlimited
  | Current stacksize for task 72: unlimited
  | Current stacksize for task 73: unlimited
  | Current stacksize for task 74: unlimited
  | Current stacksize for task 75: unlimited
  | Current stacksize for task 76: unlimited
  | Current stacksize for task 77: unlimited
  | Current stacksize for task 78: unlimited
  | Current stacksize for task 79: unlimited
 
  Consistency checks for the contents of control.in are next.
 
  MPI_IN_PLACE appears to work with this MPI implementation.
  | Keeping use_mpi_in_place .true. (see manual).
  Target number of points in a grid batch is not set. Defaulting to  100
  Method for grid partitioning is not set. Defaulting to parallel hash+maxmin partitioning.
  Batch size limit is not set. Defaulting to    200
  By default, will store active basis functions for each batch.
  If in need of memory, prune_basis_once .false. can be used to disable this option.
  communication_type for Hartree potential was not specified.
  Defaulting to calc_hartree .
  Pulay mixer: Number of initial linear mixing iterations not set.
  Defaulting to    0 iterations.
  Work space size for distributed Hartree potential not set.
  Defaulting to   0.200000E+03 MB.
  Algorithm-dependent basis array size parameters:
  | n_max_pulay                         :       12
  Maximum number of self-consistency iterations not provided.
  Presetting  1000 iterations.
  Presetting      1001 iterations before the initial mixing cycle
  is restarted anyway using the sc_init_iter criterion / keyword.
  Presetting a factor      1.000 between actual scf density residual
  and density convergence criterion sc_accuracy_rho below which sc_init_iter
  takes no effect.
 * No s.c.f. convergence criteria (sc_accuracy_*) were provided in control.in.
 * The run will proceed with a reasonable default guess, but please check whether.
 * the s.c.f. cycles seem to take too much or too little time.
  No maximum number of relaxation steps, defaulting to     1000
  Default initial Hessian is Lindh matrix (thres = 15.00) plus  0.200000E+01 eV/A^2 times unity.
  Maximum energy tolerance by which TRM/BFGS trajectory may increase over multiple steps:   0.300000E-02
  No trust radius initializer. Defaulting to   0.200000E+00 A.
  Unit cell relaxation: Restricted relaxation with fixed angles between lattice vectors.
  Unit cell relaxation: Analytical stress will be used.
  Analytical stress will be computed.
  Analytical stress calculation: Only the upper triangle is calculated.
                                 Final output is symmetrized.
  Analytical stress calculation: scf convergence accuracy of stress not set.
                                 Analytical stress self-consistency will not be checked explicitly.
                                 Be sure to set other criteria like sc_accuracy_rho tight enough.
  Forces evaluation will include force correction term due to incomplete self-consistency (default).
 * Notice: The s.c.f. convergence criterion sc_accuracy_rho was not provided.
 * We used to stop in this case, and ask the user to provide reasonable
 * scf convergence criteria. However, this led some users to employ criteria
 * that led to extremely long run times, e.g., for simple relaxation.
 * We now preset a default value for sc_accuracy_rho if it is not set.
 * You may still wish to check if this setting is too tight or too loose for your needs.
 * Based on n_atoms and forces and force-correction status, FHI-aims chose sc_accuracy_rho =  0.100000E-05 .
  Force calculation: scf convergence accuracy of forces not set.
  Defaulting to 'sc_accuracy_forces not_checked'.
  Handling of forces: Unphysical translation and rotation will be removed from forces.
  No accuracy limit for integral partition fn. given. Defaulting to  0.1000E-14.
  No threshold value for u(r) in integrations given. Defaulting to  0.1000E-05.
  No accuracy for occupation numbers given. Defaulting to  0.1000E-12.
  No threshold value for occupation numbers given. Defaulting to  0.0000E+00.
  No accuracy for fermi level given. Defaulting to  0.1000E-19.
  Maximum # of iterations to find E_F not set. Defaulting to  200.
  Preferred method for the eigenvalue solver ('KS_method') not specified in 'control.in'.
  Defaulting to serial version, LAPACK (via ELSI), since more k-points than CPUs available.
  Will not use alltoall communication since running on < 1024 CPUs.
  Threshold for basis singularities not set.
  Default threshold for basis singularities:  0.1000E-04
  partition_type (choice of integration weights) for integrals was not specified.
  | Using a version of the partition function of Stratmann and coworkers ('stratmann_sparse').
  | At each grid point, the set of atoms used to build the partition table is smoothly restricted to
  | only those atoms whose free-atom density would be non-zero at that grid point.
  Partitioning for Hartree potential was not defined. Using partition_type for integrals.
  | Adjusted default value of keyword multip_moments_threshold to:       0.10000000E-11
  | This value may affect high angular momentum components of the Hartree potential in periodic systems.
  Angular momentum expansion for Kerker preconditioner not set explicitly.
  | Using default value of   0
  No explicit requirement for turning off preconditioner.
  | By default, it will be turned off when the charge convergence reaches
  | sc_accuracy_rho  =   0.100000E-05
  No special mixing parameter while Kerker preconditioner is on.
  Using default: charge_mix_param =     0.1000.
  No q(lm)/r^(l+1) cutoff set for long-range Hartree potential.
  | Using default value of  0.100000E-09 .
  | Verify using the multipole_threshold keyword.
  Defaulting to new monopole extrapolation.
  Density update method: automatic selection selected.
  Using density matrix based charge density update.
  Using density matrix based charge density update.
  Using packed matrix style: index .
  Geometry relaxation: A file "geometry.in.next_step" is written out by default after each step.
  | This file contains the geometry of the current relaxation step as well as
  | the current Hessian matrix needed to restart the relaxation algorithm.
  | If you do not want part or all of this information, use the keywords
  | "write_restart_geometry" or "hessian_to_restart_geometry" to switch the output off.
  Defaulting to use time-reversal symmetry for k-point grid.
  Charge integration errors on the 3D integration grid will be compensated
  by explicit normalization and distribution of residual charges.
  Use the "compensate_multipole_errors" flag to change this behaviour.
  Set 'collect_eigenvectors' to be '.true.' for all serial calculations. This is mandatory.
  Set 'collect_eigenvectors' to be '.true.' for KS_method lapack_fast and serial.
 
  Consistency checks for the contents of geometry.in are next.
 

  Range separation radius for Ewald summation (hartree_convergence_parameter):      3.57754169 bohr.
  Number of empty states per atom not set in control.in - providing a guess from actual geometry.
  | Total number of empty states used during s.c.f. cycle:        9
  If you use a very high smearing, use empty_states (per atom!) in control.in to increase this value.

  Structure-dependent array size parameters: 
  | Maximum number of distinct radial functions  :       45
  | Maximum number of basis functions            :       65
  | Number of Kohn-Sham states (occupied + empty):       49
------------------------------------------------------------

------------------------------------------------------------
          Preparing all fixed parts of the calculation.
------------------------------------------------------------
  Determining machine precision:
    2.225073858507201E-308
  Setting up grids for atomic and cluster calculations.

  Creating wave function, potential, and density for free atoms.

  Species: S

  List of occupied orbitals and eigenvalues:
    n    l              occ      energy [Ha]    energy [eV]
    1    0           2.0000       -88.680731     -2413.1255
    2    0           2.0000        -7.781719      -211.7513
    3    0           2.0000        -0.633662       -17.2428
    2    1           6.0000        -5.751976      -156.5192
    3    1           4.0000        -0.257086        -6.9957


  Species: Mo

  List of occupied orbitals and eigenvalues:
    n    l              occ      energy [Ha]    energy [eV]
    1    0           2.0000      -745.344654    -20281.8600
    2    0           2.0000      -103.288246     -2810.6162
    3    0           2.0000       -17.516687      -476.6533
    4    0           2.0000        -2.358559       -64.1796
    5    0           1.0000        -0.145159        -3.9500
    2    1           6.0000       -92.308627     -2511.8455
    3    1           6.0000       -13.936005      -379.2180
    4    1           6.0000        -1.408138       -38.3174
    3    2          10.0000        -8.119011      -220.9295
    4    2           5.0000        -0.132984        -3.6187


  Species: Au

  List of occupied orbitals and eigenvalues:
    n    l              occ      energy [Ha]    energy [eV]
    1    0           2.0000     -3256.434633    -88612.0949
    2    0           2.0000      -533.658033    -14521.5739
    3    0           2.0000      -124.235224     -3380.6125
    4    0           2.0000       -26.846951      -730.5427
    5    0           2.0000        -3.977367      -108.2297
    6    0           1.0000        -0.210392        -5.7251
    2    1           6.0000      -460.387254    -12527.7746
    3    1           6.0000      -103.452063     -2815.0739
    4    1           6.0000       -20.078917      -546.3751
    5    1           6.0000        -2.192843       -59.6703
    3    2          10.0000       -81.367955     -2214.1347
    4    2          10.0000       -11.978294      -325.9460
    5    2          10.0000        -0.251979        -6.8567
    4    3          14.0000        -2.988656       -81.3255


  Adding cutoff potential to free-atom effective potential.
  Creating fixed part of basis set: Ionic, confined, hydrogenic.
 
  S                    ion:

  List of free ionic orbitals and eigenvalues:
    n    l      energy [Ha]    energy [eV]
    1    0       -89.703778     -2440.9640
    2    0        -8.775428      -238.7916
    3    0        -1.470343       -40.0101
    2    1        -6.747660      -183.6132
    3    1        -1.048627       -28.5346


  List of ionic basis orbitals and eigenvalues:
    n    l      energy [Ha]    energy [eV]    outer radius [A]
    3    2        -0.495605       -13.4861       5.386362
    3    0        -1.470336       -40.0099       3.967934

 
  S                    hydrogenic:
 
  List of hydrogenic basis orbitals: 
    n    l      effective z      eigenvalue [eV]  inner max. [A]     outer max. [A]     outer radius [A]   
    2    1         1.800000       -11.0118           1.168531           1.168531           5.452614
    4    3         7.000000       -41.6672           1.212182           1.212182           5.066981
    4    2         6.200000       -32.6848           0.582121           1.814567           5.386362
    5    4        10.800000       -63.4785           1.227092           1.227092           4.766538
 
 
  Mo                   ion:

  List of free ionic orbitals and eigenvalues:
    n    l      energy [Ha]    energy [eV]
    1    0      -746.048685    -20301.0176
    2    0      -103.980912     -2829.4646
    3    0       -18.206601      -495.4268
    4    0        -3.040545       -82.7374
    2    1       -93.001013     -2530.6863
    3    1       -14.625827      -397.9890
    4    1        -2.084855       -56.7318
    3    2        -8.808854      -239.7011
    4    2        -0.765435       -20.8285


  List of ionic basis orbitals and eigenvalues:
    n    l      energy [Ha]    energy [eV]    outer radius [A]
    5    1        -0.465587       -12.6693       5.456393
    5    0        -0.650331       -17.6964       5.390095

 
  Mo                   hydrogenic:
 
  List of hydrogenic basis orbitals: 
    n    l      effective z      eigenvalue [eV]  inner max. [A]     outer max. [A]     outer radius [A]   
    4    3         8.400000       -60.0010           1.009788           1.009788           4.487018
    3    2         2.800000       -11.8048           1.687401           1.687401           5.456393
    5    4        12.000000       -78.3687           1.100005           1.100005           4.432498
 
 
  Au                   ion:

  List of free ionic orbitals and eigenvalues:
    n    l      energy [Ha]    energy [eV]
    1    0     -3257.305345    -88635.7882
    2    0      -534.468969    -14543.6406
    3    0      -125.037161     -3402.4343
    4    0       -27.646714      -752.3054
    5    0        -4.773414      -129.8912
    2    1      -461.196653    -12549.7994
    3    1      -104.253556     -2836.8836
    4    1       -20.878488      -568.1326
    5    1        -2.984283       -81.2065
    3    2       -82.168946     -2235.9308
    4    2       -12.777596      -347.6961
    5    2        -1.004504       -27.3340
    4    3        -3.787521      -103.0637


  List of ionic basis orbitals and eigenvalues:
    n    l      energy [Ha]    energy [eV]    outer radius [A]
    6    1        -0.536435       -14.5971       5.411271
    6    0        -0.835588       -22.7375       5.090413

 
  Au                   hydrogenic:
 
  List of hydrogenic basis orbitals: 
    n    l      effective z      eigenvalue [eV]  inner max. [A]     outer max. [A]     outer radius [A]   
    4    3         7.400000       -46.5653           1.145580           1.145580           4.907105
    5    4        10.000000       -54.4226           1.326589           1.326589           5.028562
    3    2         2.500000        -9.3396           1.868078           1.868078           5.477829
 
  Creating atomic-like basis functions for current effective potential.

  Species S                   :

  List of atomic basis orbitals and eigenvalues:
    n    l      energy [Ha]    energy [eV]    outer radius [A]
    1    0       -88.680731     -2413.1255       0.682391
    2    0        -7.781719      -211.7513       2.289014
    3    0        -0.633662       -17.2428       5.256262
    2    1        -5.751976      -156.5192       2.555240
    3    1        -0.257086        -6.9957       5.386362


  Species Mo                  :

  List of atomic basis orbitals and eigenvalues:
    n    l      energy [Ha]    energy [eV]    outer radius [A]
    1    0      -745.344654    -20281.8600       0.247552
    2    0      -103.288246     -2810.6162       0.682864
    3    0       -17.516687      -476.6533       1.626637
    4    0        -2.358559       -64.1796       4.220963
    5    0        -0.145159        -3.9500       5.456393
    2    1       -92.308627     -2511.8455       0.699766
    3    1       -13.936005      -379.2180       1.793761
    4    1        -1.408138       -38.3174       4.828511
    3    2        -8.119011      -220.9295       2.181285
    4    2        -0.132984        -3.6187       5.390095


  Species Au                  :

  List of atomic basis orbitals and eigenvalues:
    n    l      energy [Ha]    energy [eV]    outer radius [A]
    1    0     -3256.434633    -88612.0949       0.120816
    2    0      -533.658033    -14521.5739       0.313506
    3    0      -124.235224     -3380.6125       0.652830
    4    0       -26.846951      -730.5427       1.359424
    5    0        -3.977367      -108.2297       3.318406
    6    0        -0.210392        -5.7251       5.411271
    2    1      -460.387254    -12527.7746       0.329217
    3    1      -103.452063     -2815.0739       0.702515
    4    1       -20.078917      -546.3751       1.536198
    5    1        -2.192843       -59.6703       4.237546
    3    2       -81.367955     -2214.1347       0.755981
    4    2       -11.978294      -325.9460       1.868078
    5    2        -0.251979        -6.8567       5.345521
    4    3        -2.988656       -81.3255       3.160040

  Assembling full basis from fixed parts.
  | Species S :   atomic orbital   1 s accepted.
  | Species S :   atomic orbital   2 s accepted.
  | Species S :    ionic orbital   3 s accepted.
  | Species S :   atomic orbital   3 s accepted.
  | Species S :   atomic orbital   2 p accepted.
  | Species S :   atomic orbital   3 p accepted.
  | Species S :    hydro orbital   2 p accepted.
  | Species S :    ionic orbital   3 d accepted.
  | Species S :    hydro orbital   4 d accepted.
  | Species S :    hydro orbital   4 f accepted.
  | Species S :    hydro orbital   5 g accepted.
  | Species Mo :   atomic orbital   1 s accepted.
  | Species Mo :   atomic orbital   2 s accepted.
  | Species Mo :   atomic orbital   3 s accepted.
  | Species Mo :   atomic orbital   4 s accepted.
  | Species Mo :    ionic orbital   5 s accepted.
  | Species Mo :   atomic orbital   5 s accepted.
  | Species Mo :   atomic orbital   2 p accepted.
  | Species Mo :   atomic orbital   3 p accepted.
  | Species Mo :   atomic orbital   4 p accepted.
  | Species Mo :    ionic orbital   5 p accepted.
  | Species Mo :   atomic orbital   3 d accepted.
  | Species Mo :   atomic orbital   4 d accepted.
  | Species Mo :    hydro orbital   3 d accepted.
  | Species Mo :    hydro orbital   4 f accepted.
  | Species Mo :    hydro orbital   5 g accepted.
  | Species Au :   atomic orbital   1 s accepted.
  | Species Au :   atomic orbital   2 s accepted.
  | Species Au :   atomic orbital   3 s accepted.
  | Species Au :   atomic orbital   4 s accepted.
  | Species Au :   atomic orbital   5 s accepted.
  | Species Au :    ionic orbital   6 s accepted.
  | Species Au :   atomic orbital   6 s accepted.
  | Species Au :   atomic orbital   2 p accepted.
  | Species Au :   atomic orbital   3 p accepted.
  | Species Au :   atomic orbital   4 p accepted.
  | Species Au :   atomic orbital   5 p accepted.
  | Species Au :    ionic orbital   6 p accepted.
  | Species Au :   atomic orbital   3 d accepted.
  | Species Au :   atomic orbital   4 d accepted.
  | Species Au :   atomic orbital   5 d accepted.
  | Species Au :    hydro orbital   3 d accepted.
  | Species Au :   atomic orbital   4 f accepted.
  | Species Au :    hydro orbital   4 f accepted.
  | Species Au :    hydro orbital   5 g accepted.
 
  Basis size parameters after reduction:
  | Total number of radial functions:       45
  | Total number of basis functions :       65
 
  Per-task memory consumption for arrays in subroutine allocate_ext:
  |          17.146044MB.
  Testing on-site integration grid accuracy.
  |  Species  Function  <phi|h_atom|phi> (log., in eV)  <phi|h_atom|phi> (rad., in eV)
           1        1              -2413.1254568977              -2413.1254096663
           1        2               -211.7513411281               -211.7513404762
           1        3                -16.9725280787                -16.9725279206
           1        4                  7.6024436204                  7.6024549059
           1        5               -156.5192206929               -156.5192205451
           1        6                 -6.9959757887                 -6.9959777655
           1        7                  6.8896462808                  6.8895564741
           1        8                  6.0214250550                  6.0214220200
           1        9                 19.6206468977                 19.6206494558
           1       10                 24.7008710786                 24.7008710738
           1       11                 47.5292252001                 47.5292260486
           2       12             -20281.8599610543             -20281.8584300616
           2       13              -2810.6161812280              -2810.6161551921
           2       14               -476.6533163555               -476.6533136395
           2       15                -64.1796433667                -64.1796426456
           2       16                 -3.3691762756                 -3.3691802887
           2       17                  4.4704608512                  4.4699102345
           2       18              -2511.8455406047              -2511.8455385741
           2       19               -379.2179896350               -379.2179882338
           2       20                -38.3173891619                -38.3173886619
           2       21                  0.2493245095                  0.2492931069
           2       22               -220.9295301098               -220.9295297081
           2       23                 -3.6195697699                 -3.6195754704
           2       24                  7.1428000922                  7.1426882355
           2       25                 23.3975871087                 23.3975871819
           2       26                 50.2449608881                 50.2449608586
           3       27             -88612.0949139707             -88612.0747293473
           3       28             -14521.5739437942             -14521.5735408178
           3       29              -3380.6124545399              -3380.6124173630
           3       30               -730.5426935261               -730.5426858705
           3       31               -108.2296517333               -108.2296496095
           3       32                 -5.1606682002                 -5.1606681296
           3       33                  4.8958549913                  4.8958893750
           3       34             -12527.7745999590             -12527.7745914501
           3       35              -2815.0738542900              -2815.0738418447
           3       36               -546.3751362224               -546.3751311418
           3       37                -59.6702997856                -59.6702984643
           3       38                  0.7376589007                  0.7376588285
           3       39              -2214.1347180493              -2214.1347136987
           3       40               -325.9459599587               -325.9459574815
           3       41                 -6.8567570024                 -6.8567566279
           3       42                  5.7674784720                  5.7674893342
           3       43                -81.3254720988                -81.3254715870
           3       44                 21.6280526257                 21.6280525634
           3       45                 37.4546776375                 37.4546777145

  Preparing densities etc. for the partition functions (integrals / Hartree potential).
 Frequency grid relative error: 0.12418110983958286E-009                        
   
 Will use parallel mode: k_points  

  Preparations completed.
  max(cpu_time)          :      0.792 s.
  Wall clock time (cpu1) :      1.085 s.
------------------------------------------------------------

------------------------------------------------------------
          Begin self-consistency loop: Initialization.

          Date     :  20220118, Time     :  172429.912
------------------------------------------------------------

  Initializing index lists of integration centers etc. from given atomic structure:
  Mapping all atomic coordinates to central unit cell.

  Initializing the k-points
  Using symmetry for reducing the k-points
  | k-points reduced from:     1728 to      868
  | Number of k-points                             :       868
  The eigenvectors in the calculations are COMPLEX.
  | K-points in task   0:        10
  | K-points in task   1:        11
  | K-points in task   2:        11
  | K-points in task   3:        11
  | K-points in task   4:        11
  | K-points in task   5:        11
  | K-points in task   6:        11
  | K-points in task   7:        11
  | K-points in task   8:        11
  | K-points in task   9:        11
  | K-points in task  10:        11
  | K-points in task  11:        11
  | K-points in task  12:        11
  | K-points in task  13:        11
  | K-points in task  14:        11
  | K-points in task  15:        11
  | K-points in task  16:        11
  | K-points in task  17:        11
  | K-points in task  18:        11
  | K-points in task  19:        11
  | K-points in task  20:        11
  | K-points in task  21:        11
  | K-points in task  22:        11
  | K-points in task  23:        11
  | K-points in task  24:        11
  | K-points in task  25:        11
  | K-points in task  26:        11
  | K-points in task  27:        11
  | K-points in task  28:        11
  | K-points in task  29:        11
  | K-points in task  30:        11
  | K-points in task  31:        11
  | K-points in task  32:        11
  | K-points in task  33:        11
  | K-points in task  34:        11
  | K-points in task  35:        11
  | K-points in task  36:        11
  | K-points in task  37:        11
  | K-points in task  38:        11
  | K-points in task  39:        11
  | K-points in task  40:        11
  | K-points in task  41:        11
  | K-points in task  42:        11
  | K-points in task  43:        11
  | K-points in task  44:        11
  | K-points in task  45:        11
  | K-points in task  46:        11
  | K-points in task  47:        11
  | K-points in task  48:        11
  | K-points in task  49:        11
  | K-points in task  50:        11
  | K-points in task  51:        11
  | K-points in task  52:        11
  | K-points in task  53:        11
  | K-points in task  54:        11
  | K-points in task  55:        11
  | K-points in task  56:        11
  | K-points in task  57:        11
  | K-points in task  58:        11
  | K-points in task  59:        11
  | K-points in task  60:        11
  | K-points in task  61:        11
  | K-points in task  62:        11
  | K-points in task  63:        11
  | K-points in task  64:        11
  | K-points in task  65:        11
  | K-points in task  66:        11
  | K-points in task  67:        11
  | K-points in task  68:        11
  | K-points in task  69:        10
  | K-points in task  70:        10
  | K-points in task  71:        10
  | K-points in task  72:        10
  | K-points in task  73:        10
  | K-points in task  74:        10
  | K-points in task  75:        10
  | K-points in task  76:        10
  | K-points in task  77:        10
  | K-points in task  78:        10
  | K-points in task  79:        10
  | Number of basis functions in the Hamiltonian integrals :      3791
  | Number of basis functions in a single unit cell        :        65
  | Number of centers in hartree potential         :       887
  | Number of centers in hartree multipole         :       555
  | Number of centers in electron density summation:       381
  | Number of centers in basis integrals           :       429
  | Number of centers in integrals                 :       159
  | Number of centers in hamiltonian               :       381
  | Consuming       5180 KiB for k_phase.
  | Number of super-cells (origin) [n_cells]                     :        3375
  | Number of super-cells (after PM_index) [n_cells]             :         382
  | Number of super-cells in hamiltonian [n_cells_in_hamiltonian]:         382
  | Size of matrix packed + index [n_hamiltonian_matrix_size] :      301456

  Initializing relaxation algorithms.
  Finished initialization of distributed Hessian storage.
  | Global dimension:        12
  | BLACS block size:         1
  | Number of workers:       12

  | Estimated reciprocal-space cutoff momentum G_max:         2.74280832 bohr^-1 .
  | Reciprocal lattice points for long-range Hartree potential:      26
  Partitioning the integration grid into batches with parallel hashing+maxmin method.
  | Number of batches:      384
  | Maximal batch size:     107
  | Minimal batch size:      15
  | Average batch size:      76.016
  | Standard deviation of batch sizes:      16.008

  Integration load balanced across    80 MPI tasks.
  Work distribution over tasks is as follows:
  Task     0 has        352 integration points.
  Task     1 has        327 integration points.
  Task     2 has        352 integration points.
  Task     3 has        377 integration points.
  Task     4 has        352 integration points.
  Task     5 has        373 integration points.
  Task     6 has        350 integration points.
  Task     7 has        366 integration points.
  Task     8 has        330 integration points.
  Task     9 has        358 integration points.
  Task    10 has        354 integration points.
  Task    11 has        357 integration points.
  Task    12 has        318 integration points.
  Task    13 has        372 integration points.
  Task    14 has        355 integration points.
  Task    15 has        380 integration points.
  Task    16 has        384 integration points.
  Task    17 has        329 integration points.
  Task    18 has        371 integration points.
  Task    19 has        369 integration points.
  Task    20 has        355 integration points.
  Task    21 has        368 integration points.
  Task    22 has        368 integration points.
  Task    23 has        360 integration points.
  Task    24 has        397 integration points.
  Task    25 has        330 integration points.
  Task    26 has        401 integration points.
  Task    27 has        384 integration points.
  Task    28 has        404 integration points.
  Task    29 has        325 integration points.
  Task    30 has        387 integration points.
  Task    31 has        326 integration points.
  Task    32 has        396 integration points.
  Task    33 has        400 integration points.
  Task    34 has        401 integration points.
  Task    35 has        383 integration points.
  Task    36 has        350 integration points.
  Task    37 has        393 integration points.
  Task    38 has        387 integration points.
  Task    39 has        331 integration points.
  Task    40 has        389 integration points.
  Task    41 has        399 integration points.
  Task    42 has        377 integration points.
  Task    43 has        400 integration points.
  Task    44 has        388 integration points.
  Task    45 has        380 integration points.
  Task    46 has        374 integration points.
  Task    47 has        380 integration points.
  Task    48 has        357 integration points.
  Task    49 has        376 integration points.
  Task    50 has        392 integration points.
  Task    51 has        386 integration points.
  Task    52 has        391 integration points.
  Task    53 has        373 integration points.
  Task    54 has        356 integration points.
  Task    55 has        379 integration points.
  Task    56 has        396 integration points.
  Task    57 has        322 integration points.
  Task    58 has        362 integration points.
  Task    59 has        393 integration points.
  Task    60 has        364 integration points.
  Task    61 has        363 integration points.
  Task    62 has        345 integration points.
  Task    63 has        354 integration points.
  Task    64 has        367 integration points.
  Task    65 has        349 integration points.
  Task    66 has        346 integration points.
  Task    67 has        349 integration points.
  Task    68 has        396 integration points.
  Task    69 has        348 integration points.
  Task    70 has        346 integration points.
  Task    71 has        358 integration points.
  Task    72 has        354 integration points.
  Task    73 has        352 integration points.
  Task    74 has        342 integration points.
  Task    75 has        355 integration points.
  Task    76 has        335 integration points.
  Task    77 has        345 integration points.
  Task    78 has        353 integration points.
  Task    79 has        327 integration points.
  Initializing partition tables, free-atom densities, potentials, etc. across the integration grid (initialize_grid_storage).
  | initialize_grid_storage: Actual outermost partition radius vs. multipole_radius_free
  | (-- VB: in principle, multipole_radius_free should be larger, hence this output)
  | Species        1: Confinement radius =              6.000000000000000 AA, multipole_radius_free =              6.012827091137924 AA.
  | Species        1: outer_partition_radius set to              6.012827091137924 AA .
  | Species        2: Confinement radius =              6.000000000000000 AA, multipole_radius_free =              6.016994434057369 AA.
  | Species        2: outer_partition_radius set to              6.016994434057369 AA .
  | Species        3: Confinement radius =              6.000000000000000 AA, multipole_radius_free =              6.040632965187119 AA.
  | Species        3: outer_partition_radius set to              6.040632965187119 AA .
  | The sparse table of interatomic distances needs       1867.96 kbyte instead of      1472.33 kbyte of memory.
  | Using the partition_type stratmann_smoother will reduce your memory usage.
  | Net number of integration points:    29190
  | of which are non-zero points    :    22338
  | Numerical average free-atom electrostatic potential    :    -31.64015417 eV
  Renormalizing the initial density to the exact electron count on the 3D integration grid.
  | Initial density: Formal number of electrons (from input files) :      79.0000000000
  | Integrated number of electrons on 3D grid     :      79.0001036153
  | Charge integration error                      :       0.0001036153
  | Normalization factor for density and gradient :       0.9999986884
  Renormalizing the free-atom superposition density to the exact electron count on the 3D integration grid.
  | Formal number of electrons (from input files) :      79.0000000000
  | Integrated number of electrons on 3D grid     :      79.0001036153
  | Charge integration error                      :       0.0001036153
  | Normalization factor for density and gradient :       0.9999986884
  Obtaining max. number of non-zero basis functions in each batch (get_n_compute_maxes).
  | Maximal number of non-zero basis functions:     1698 in task     0
  | Maximal number of non-zero basis functions:     1744 in task     1
  | Maximal number of non-zero basis functions:     1661 in task     2
  | Maximal number of non-zero basis functions:     1680 in task     3
  | Maximal number of non-zero basis functions:     1690 in task     4
  | Maximal number of non-zero basis functions:     1687 in task     5
  | Maximal number of non-zero basis functions:     1718 in task     6
  | Maximal number of non-zero basis functions:     1655 in task     7
  | Maximal number of non-zero basis functions:     1735 in task     8
  | Maximal number of non-zero basis functions:     1724 in task     9
  | Maximal number of non-zero basis functions:     1755 in task    10
  | Maximal number of non-zero basis functions:     1711 in task    11
  | Maximal number of non-zero basis functions:     1673 in task    12
  | Maximal number of non-zero basis functions:     1699 in task    13
  | Maximal number of non-zero basis functions:     1705 in task    14
  | Maximal number of non-zero basis functions:     1689 in task    15
  | Maximal number of non-zero basis functions:     1686 in task    16
  | Maximal number of non-zero basis functions:     1710 in task    17
  | Maximal number of non-zero basis functions:     1689 in task    18
  | Maximal number of non-zero basis functions:     1701 in task    19
  | Maximal number of non-zero basis functions:     1686 in task    20
  | Maximal number of non-zero basis functions:     1680 in task    21
  | Maximal number of non-zero basis functions:     1655 in task    22
  | Maximal number of non-zero basis functions:     1705 in task    23
  | Maximal number of non-zero basis functions:     1688 in task    24
  | Maximal number of non-zero basis functions:     1740 in task    25
  | Maximal number of non-zero basis functions:     1684 in task    26
  | Maximal number of non-zero basis functions:     1740 in task    27
  | Maximal number of non-zero basis functions:     1662 in task    28
  | Maximal number of non-zero basis functions:     1718 in task    29
  | Maximal number of non-zero basis functions:     1687 in task    30
  | Maximal number of non-zero basis functions:     1749 in task    31
  | Maximal number of non-zero basis functions:     1699 in task    32
  | Maximal number of non-zero basis functions:     1683 in task    33
  | Maximal number of non-zero basis functions:     1673 in task    34
  | Maximal number of non-zero basis functions:     1662 in task    35
  | Maximal number of non-zero basis functions:     1678 in task    36
  | Maximal number of non-zero basis functions:     1679 in task    37
  | Maximal number of non-zero basis functions:     1690 in task    38
  | Maximal number of non-zero basis functions:     1673 in task    39
  | Maximal number of non-zero basis functions:     1674 in task    40
  | Maximal number of non-zero basis functions:     1699 in task    41
  | Maximal number of non-zero basis functions:     1675 in task    42
  | Maximal number of non-zero basis functions:     1683 in task    43
  | Maximal number of non-zero basis functions:     1655 in task    44
  | Maximal number of non-zero basis functions:     1699 in task    45
  | Maximal number of non-zero basis functions:     1662 in task    46
  | Maximal number of non-zero basis functions:     1740 in task    47
  | Maximal number of non-zero basis functions:     1711 in task    48
  | Maximal number of non-zero basis functions:     1677 in task    49
  | Maximal number of non-zero basis functions:     1670 in task    50
  | Maximal number of non-zero basis functions:     1731 in task    51
  | Maximal number of non-zero basis functions:     1696 in task    52
  | Maximal number of non-zero basis functions:     1676 in task    53
  | Maximal number of non-zero basis functions:     1635 in task    54
  | Maximal number of non-zero basis functions:     1665 in task    55
  | Maximal number of non-zero basis functions:     1651 in task    56
  | Maximal number of non-zero basis functions:     1635 in task    57
  | Maximal number of non-zero basis functions:     1673 in task    58
  | Maximal number of non-zero basis functions:     1685 in task    59
  | Maximal number of non-zero basis functions:     1657 in task    60
  | Maximal number of non-zero basis functions:     1726 in task    61
  | Maximal number of non-zero basis functions:     1730 in task    62
  | Maximal number of non-zero basis functions:     1675 in task    63
  | Maximal number of non-zero basis functions:     1718 in task    64
  | Maximal number of non-zero basis functions:     1684 in task    65
  | Maximal number of non-zero basis functions:     1676 in task    66
  | Maximal number of non-zero basis functions:     1663 in task    67
  | Maximal number of non-zero basis functions:     1681 in task    68
  | Maximal number of non-zero basis functions:     1684 in task    69
  | Maximal number of non-zero basis functions:     1679 in task    70
  | Maximal number of non-zero basis functions:     1636 in task    71
  | Maximal number of non-zero basis functions:     1735 in task    72
  | Maximal number of non-zero basis functions:     1715 in task    73
  | Maximal number of non-zero basis functions:     1670 in task    74
  | Maximal number of non-zero basis functions:     1684 in task    75
  | Maximal number of non-zero basis functions:     1719 in task    76
  | Maximal number of non-zero basis functions:     1696 in task    77
  | Maximal number of non-zero basis functions:     1718 in task    78
  | Maximal number of non-zero basis functions:     1667 in task    79
  Allocating        0.486 MB for KS_eigenvector_complex
  Integrating Hamiltonian matrix: batch-based integration.
  Time summed over all CPUs for integration: real work       19.327 s, elapsed       23.613 s
  Integrating overlap matrix.
  Time summed over all CPUs for integration: real work       12.520 s, elapsed       14.847 s
  Decreasing sparse matrix size:
  | Tolerance:  0.1000E-12
  Hamiltonian matrix
  | Array has   199580 nonzero elements out of   301456 elements
  | Sparsity factor is 0.338
  Overlap matrix
  | Array has   184962 nonzero elements out of   301456 elements
  | Sparsity factor is 0.386
  New size of hamiltonian matrix:      201468

  Updating Kohn-Sham eigenvalues and eigenvectors using ELSI and the (modified) LAPACK eigensolver.
  Singularity check in k-point 80, task 0 (analysis for other k-points/tasks may follow below):
  Overlap matrix is not singular
  | Lowest and highest eigenvalues :  0.2854E-03,  0.7802E+01
  Finished singularity check of overlap matrix
  | Time :     0.143 s
  Starting LAPACK eigensolver
  Finished Cholesky decomposition
  | Time :     0.020 s
  Finished transformation to standard eigenproblem
  | Time :     0.000 s
  Finished solving standard eigenproblem
  | Time :     0.013 s
  Finished back-transformation of eigenvectors
  | Time :     0.000 s

  Obtaining occupation numbers and chemical potential using ELSI.
  | Chemical potential (Fermi level):    -3.64917541 eV
  Writing Kohn-Sham eigenvalues.
  K-point:       1 at    0.000000    0.000000    0.000000 (in units of recip. lattice)

  State    Occupation    Eigenvalue [Ha]    Eigenvalue [eV]
      1       2.00000       -3256.447618       -88612.44822
      2       2.00000        -533.668639       -14521.86254
      3       2.00000        -460.397539       -12528.05446
      4       2.00000        -460.397539       -12528.05446
      5       2.00000        -460.397539       -12528.05446
      6       2.00000        -124.245739        -3380.89859
      7       2.00000        -103.462514        -2815.35825
      8       2.00000        -103.462514        -2815.35825
      9       2.00000        -103.462514        -2815.35825
     10       2.00000         -81.378375        -2214.41825
     11       2.00000         -81.378375        -2214.41825
     12       2.00000         -81.378375        -2214.41825
     13       2.00000         -81.378375        -2214.41824
     14       2.00000         -81.378375        -2214.41824
     15       2.00000         -26.858123         -730.84672
     16       2.00000         -20.090209         -546.68240
     17       2.00000         -20.090209         -546.68240
     18       2.00000         -20.090209         -546.68240
     19       2.00000         -11.989745         -326.25757
     20       2.00000         -11.989745         -326.25757
     21       2.00000         -11.989745         -326.25757
     22       2.00000         -11.989734         -326.25727
     23       2.00000         -11.989734         -326.25727
     24       2.00000          -3.993769         -108.67599
     25       2.00000          -3.000490          -81.64748
     26       2.00000          -3.000450          -81.64640
     27       2.00000          -3.000450          -81.64640
     28       2.00000          -3.000450          -81.64640
     29       2.00000          -3.000420          -81.64558
     30       2.00000          -3.000420          -81.64558
     31       2.00000          -3.000420          -81.64558
     32       2.00000          -2.206607          -60.04484
     33       2.00000          -2.206607          -60.04484
     34       2.00000          -2.206607          -60.04484
     35       2.00000          -0.542640          -14.76598
     36       2.00000          -0.316216           -8.60467
     37       2.00000          -0.316216           -8.60467
     38       2.00000          -0.316216           -8.60467
     39       2.00000          -0.250708           -6.82211
     40       2.00000          -0.250708           -6.82211
     41       0.00000           0.391822           10.66202
     42       0.00000           0.556001           15.12955
     43       0.00000           0.556001           15.12955
     44       0.00000           0.556001           15.12955
     45       0.00000           0.763246           20.76899
     46       0.00000           0.935488           25.45594
     47       0.00000           0.935488           25.45594
     48       0.00000           0.935488           25.45594
     49       0.00000           1.016305           27.65505

  What follows are estimated values for band gap, HOMO, LUMO, etc.
  | They are estimated on a discrete k-point grid and not necessarily exact.
  | For converged numbers, create a DOS and/or band structure plot on a denser k-grid.

  Highest occupied state (VBM) at     -3.75736467 eV (relative to internal zero)
  | Occupation number:      2.00000000
  | K-point:     214 at    0.166667    0.250000    0.500000 (in units of recip. lattice)

[...]
  applied to determine the occupation numbers.
  | Chemical Potential                          :    -4.66473955 eV

  Self-consistency cycle converged.


------------------------------------------------------------
  End self-consistency iteration #    12       :  max(cpu_time)    wall_clock(cpu1)
  | Time for this iteration                    :        8.914 s           8.917 s
  | Charge density & force component update    :        8.281 s           8.284 s
  | Density mixing                             :        0.000 s           0.000 s
  | Hartree multipole update                   :        0.002 s           0.002 s
  | Hartree multipole summation                :        0.196 s           0.196 s
  | Hartree pot. SCF incomplete forces         :        0.140 s           0.140 s
  | Integration                                :        0.193 s           0.193 s
  | Solution of K.-S. eqns.                    :        0.065 s           0.065 s
  | Total energy evaluation                    :        0.001 s           0.001 s

  Partial memory accounting:
  | Current value for overall tracked memory usage:
  |   Minimum:        4.497 MB (on task  0)
  |   Maximum:        4.594 MB (on task  1)
  |   Average:        4.580 MB
  | Peak value for overall tracked memory usage:
  |   Minimum:       51.900 MB (on task 71 after allocating d_wave)
  |   Maximum:       56.540 MB (on task 10 after allocating d_wave)
  |   Average:       53.984 MB
  | Largest tracked array allocation so far:
  |   Minimum:       20.395 MB (hamiltonian_shell on task 57)
  |   Maximum:       23.499 MB (hamiltonian_shell on task 10)
  |   Average:       21.850 MB
  Note:  These values currently only include a subset of arrays which are explicitly tracked.
  The "true" memory usage will be greater.
------------------------------------------------------------
  Obtaining max. number of non-zero basis functions in each batch .
  Evaluating KS electron density on previously omitted grid points, using the density matrix.
  Evaluating density matrix

  Entering Libmbd.
  Libmbd: VdW method: mbd-nl
  Libmbd: Evaluating kinetic energy density...

  Evaluating density matrix

  Libmbd: Performing Hirshfeld analysis...
  Libmbd: Calculating MBD energy...
  Libmbd: Evaluated energy: -0.11954022495311068E-001

  Leaving Libmbd.


  Total energy components:
  | Sum of eigenvalues            :      -12390.29423066 Ha     -337157.06037864 eV
  | XC energy correction          :        -367.95555300 Ha      -10012.58003157 eV
  | XC potential correction       :         481.30969975 Ha       13097.10330345 eV
  | Free-atom electrostatic energy:       -7412.24201780 Ha     -201697.36755344 eV
  | Hartree energy correction     :           4.25633990 Ha         115.82090163 eV
  | vdW energy correction         :          -0.01195402 Ha          -0.32528550 eV
  | Entropy correction            :          -0.00000137 Ha          -0.00003724 eV
  | ---------------------------
  | Total energy                  :      -19684.93771583 Ha     -535654.40904407 eV
  | Total energy, T -> 0          :      -19684.93771720 Ha     -535654.40908131 eV  <-- do not rely on this value for anything but (periodic) metals
  | Electronic free energy        :      -19684.93771857 Ha     -535654.40911855 eV

  Derived energy quantities:
  | Kinetic energy                :       22090.08337384 Ha      601101.75232259 eV
  | Electrostatic energy          :      -41407.05358265 Ha    -1126743.25604959 eV
  | Energy correction for multipole
  | error in Hartree potential    :          -0.00013518 Ha          -0.00367836 eV
  | Sum of eigenvalues per atom                           :     -337157.06037864 eV
  | Total energy (T->0) per atom                          :     -535654.40908131 eV  <-- do not rely on this value for anything but (periodic) metals
  | Electronic free energy per atom                       :     -535654.40911855 eV

  atomic forces [eV/Ang]:
  -----------------------
  atom #    1
   Hellmann-Feynman              : -0.276402E-08 -0.117123E-06 -0.333363E-07
   Ionic forces                  :  0.000000E+00  0.000000E+00  0.000000E+00
   Multipole                     :  0.522897E-09  0.231985E-11 -0.864393E-10
   Hartree pot. SCF incomplete   : -0.177921E-08  0.912954E-07  0.118069E-08
   Pulay + GGA                   : -0.267041E-05  0.654903E-05 -0.134093E-05
   Van der Waals                 :  0.000000E+00  0.000000E+00  0.000000E+00
   ----------------------------------------------------------------
   Total forces(   1)            : -0.267443E-05  0.652320E-05 -0.137318E-05

  Symmetry information by spglib:
  | Precision set to  0.1E-04
  | Number of Operations  : 48
  | Space group           : 225
  | International         : Fm-3m    Q
  | Schoenflies           : Oh^5
  | Symmetrizing total forces.


  Analytical stress tensor components [eV]         xx                  yy                  zz                  xy                  xz                  yz
  -----------------------------------------------------------------------------------------------------------------------------------------------------------
    Nuclear Hellmann-Feynman      :     0.2486296150E+02    0.2486292044E+02    0.2486292044E+02    0.5353152493E-07   -0.2357313581E-09   -0.6415497839E-09
    Multipole Hellmann-Feynman    :    -0.4535415408E+02   -0.4535414856E+02   -0.4535414856E+02    0.1579580035E-07   -0.9899444012E-10   -0.1856145752E-09
    On-site Multipole corrections :    -0.5793225207E+01   -0.5793225207E+01   -0.5793225206E+01    0.1423045077E-09   -0.2072696090E-09   -0.1856145752E-10
    Strain deriv. of the orbitals :     0.2599441599E+02    0.2599443773E+02    0.2599443774E+02   -0.7118048272E-07    0.9642601656E-08   -0.3237620898E-09
    vdW correction                :     0.2898536784E+00    0.2898536784E+00    0.2898536784E+00    0.1196678874E-03    0.1196678874E-03    0.1196678874E-03
  -----------------------------------------------------------------------------------------------------------------------------------------------------------
  Sum of all contributions        :    -0.1481187328E-03   -0.1619174989E-03   -0.1619100429E-03    0.1196661765E-03    0.1196769880E-03    0.1196667179E-03


  Symmetry information by spglib:
  | Precision set to  0.1E-04
  | Number of Operations  : 48
  | Space group           : 225
  | International         : Fm-3m
  | Schoenflies           : Oh^5
  | Symmetrizing stress
  | Symmetrizing stress
  +-------------------------------------------------------------------+
  |              Analytical stress tensor - Symmetrized               |
  |                  Cartesian components [eV/A**3]                   |
  +-------------------------------------------------------------------+
  |                x                y                z                |
  |                                                                   |
  |  x        -0.00000893       0.00000679       0.00000679           |
  |  y         0.00000679      -0.00000893       0.00000679           |
  |  z         0.00000679       0.00000679      -0.00000893           |
  |                                                                   |
  |  Pressure:       0.00000893   [eV/A**3]                           |
  |                                                                   |
  +-------------------------------------------------------------------+

 * Warning: Stress tensor is anisotropic. Be aware that pressure is an isotropic quantity.

  Timings for VdW correction (Tkatchenko-Scheffler 2009 or later):
  | CPU time:        0.510 s, Wall clock time:        0.510 s.
  Removing unitary transformations (pure translations, rotations) from forces on atoms.
  Atomic forces before filtering:
  | Net force on center of mass :   0.000000E+00  0.000000E+00  0.000000E+00 eV/A
  Removing unitary transformations (rotations) from forces on lattice.
  Lattice forces before filtering:
  | Net torque relative to origin:   0.438992E-20  0.000000E+00  0.000000E+00 eV
  Atomic forces after filtering:
  | Net force on center of mass :   0.000000E+00  0.000000E+00  0.000000E+00 eV/A
  Lattice forces after filtering:
  | Net torque relative to origin:   0.438992E-20  0.000000E+00  0.000000E+00 eV

  Energy and forces in a compact form:
  | Total energy uncorrected      :         -0.535654409044066E+06 eV
  | Total energy corrected        :         -0.535654409081307E+06 eV  <-- do not rely on this value for anything but (periodic) metals
  | Electronic free energy        :         -0.535654409118547E+06 eV
  Total atomic forces (unitary forces cleaned) [eV/Ang]:
  |    1          0.000000000000000E+00          0.000000000000000E+00          0.000000000000000E+00

  ------------------------------------ 
  Start decomposition of the XC Energy 
  ------------------------------------ 
  X and C from original XC functional choice 
  Hartree-Fock Energy :          0.000000000 Ha              0.000000000 eV
  X Energy            :       -363.080950015 Ha          -9879.935335488 eV
  C Energy            :         -4.874602984 Ha           -132.644696077 eV
  Total XC Energy     :       -367.955552999 Ha         -10012.580031565 eV
  ------------------------------------ 
  LDA X and C from self-consistent density 
  X Energy LDA        :       -348.554805174 Ha          -9484.658822921 eV
  C Energy LDA        :         -8.281646189 Ha           -225.355058746 eV
  ------------------------------------ 
  End decomposition of the XC Energy 
  ------------------------------------ 

------------------------------------------------------------
  Relaxation / MD: End force evaluation.       :  max(cpu_time)    wall_clock(cpu1)
  | Time for this force evaluation             :       17.207 s          17.217 s

------------------------------------------------------------
  Geometry optimization: Attempting to predict improved coordinates.

  +-------------------------------------------------------------------+
  | Generalized derivatives on lattice vectors [eV/A]                 |
  +-------------------------------------------------------------------+
  |lattice_vector       0.00009604      -0.00003809      -0.00003809  |
  |lattice_vector      -0.00003809       0.00009604      -0.00003809  |
  |lattice_vector      -0.00003809      -0.00003809       0.00009604  |
  +-------------------------------------------------------------------+
  | Forces on lattice vectors cleaned from atomic contributions [eV/A]|
  +-------------------------------------------------------------------+
  |lattice_vector      -0.00009604       0.00003809       0.00003809  |
  |lattice_vector       0.00003809      -0.00009604       0.00003809  |
  |lattice_vector       0.00003809       0.00003809      -0.00009604  |
  +-------------------------------------------------------------------+
  | Projected forces for shape relaxation  [eV/A]                     |
  +-------------------------------------------------------------------+
  |lattice_vector       0.00000000       0.00003809       0.00003809  |
  |lattice_vector       0.00003809       0.00000000       0.00003809  |
  |lattice_vector       0.00003809       0.00003809       0.00000000  |
  +-------------------------------------------------------------------+
  Removing unitary transformations (pure translations, rotations) from forces on atoms.
  Atomic forces before filtering:
  | Net force on center of mass :   0.000000E+00  0.000000E+00  0.000000E+00 eV/A
  Removing unitary transformations (rotations) from forces on lattice.
  Lattice forces before filtering:
  | Net torque relative to origin:   0.000000E+00  0.000000E+00  0.000000E+00 eV
  Atomic forces after filtering:
  | Net force on center of mass :   0.000000E+00  0.000000E+00  0.000000E+00 eV/A
  Lattice forces after filtering:
  | Net torque relative to origin:   0.000000E+00  0.000000E+00  0.000000E+00 eV
  Net remaining forces (excluding translations, rotations) in present geometry:
  || Forces on atoms   || =   0.000000E+00 eV/A.
  || Forces on lattice || =   0.380907E-04 eV/A^3.
  Maximum force component is  0.380907E-04 eV/A.
  Present geometry is converged.

------------------------------------------------------------
  Final atomic structure:
                         x [A]             y [A]             z [A]
  lattice_vector         0.00000000        2.06501231        2.06501231
  lattice_vector         2.06501231        0.00000000        2.06501231
  lattice_vector         2.06501231        2.06501231        0.00000000

            atom         0.00000000        0.00000000        0.00000000  Au

  Fractional coordinates:
                         L1                L2                L3
       atom_frac         0.00000000        0.00000000        0.00000000  Au
------------------------------------------------------------

------------------------------------------------------------------------------
  Final output of selected total energy values:

  The following output summarizes some interesting total energy values
  at the end of a run (AFTER all relaxation, molecular dynamics, etc.).

  | Total energy of the DFT / Hartree-Fock s.c.f. calculation      :        -535654.409044066 eV
  | Final zero-broadening corrected energy (caution - metals only) :        -535654.409081307 eV
  | For reference only, the value of 1 Hartree used in FHI-aims is :             27.211384500 eV
  | For reference only, the overall average (free atom contribution
  | + realspace contribution) of the electrostatic potential after
  | s.c.f. convergence is                                          :            -29.431790371 eV

  Before relying on these values, please be sure to understand exactly which
  total energy value is referred to by a given number. Different objects may
  all carry the same name 'total energy'. Definitions:

  Total energy of the DFT / Hartree-Fock s.c.f. calculation:
  | Note that this energy does not include ANY quantities calculated after the
  | s.c.f. cycle, in particular not ANY RPA, MP2, etc. many-body perturbation terms.

  Final zero-broadening corrected energy:
  | For metallic systems only, a broadening of the occupation numbers at the Fermi
  | level can be extrapolated back to zero broadening by an electron-gas inspired
  | formula. For all systems that are not real metals, this value can be
  | meaningless and should be avoided.

------------------------------------------------------------------------------
  Methods described in the following list of references were used in this FHI-aims run.
  If you publish the results, please make sure to cite these reference if they apply.
  FHI-aims is an academic code, and for our developers (often, Ph.D. students
  and postdocs), scientific credit in the community is essential.
  Thank you for helping us!

  For any use of FHI-aims, please cite:

    Volker Blum, Ralf Gehrke, Felix Hanke, Paula Havu, Ville Havu,
    Xinguo Ren, Karsten Reuter, and Matthias Scheffler
    'Ab initio molecular simulations with numeric atom-centered orbitals'
    Computer Physics Communications 180, 2175-2196 (2009)
    http://dx.doi.org/10.1016/j.cpc.2009.06.022


  For the analytical stress tensor used in your run, please cite:

    Franz Knuth, Christian Carbogno, Viktor Atalla, Volker Blum, Matthias Scheffler
    'All-electron formalism for total energy strain derivatives and
    stress tensor components for numeric atom-centered orbitals'
    Computer Physics Communications 190, 33-50 (2015).
    http://dx.doi.org/10.1016/j.cpc.2015.01.003


  The provided symmetry information was generated with SPGlib:

    Atsushi Togo, Yusuke Seto, Dimitar Pashov
    SPGlib 1.7.3 obtained from http://spglib.sourceforge.net
    Copyright (C) 2008 Atsushi Togo


  The ELSI infrastructure was used in your run to solve the Kohn-Sham electronic structure.
  Please check out http://elsi-interchange.org to learn more.
  If scalability is important for your project, please acknowledge ELSI by citing:

    V. W-z. Yu, F. Corsetti, A. Garcia, W. P. Huhn, M. Jacquelin, W. Jia,
    B. Lange, L. Lin, J. Lu, W. Mi, A. Seifitokaldani, A. Vazquez-Mayagoitia,
    C. Yang, H. Yang, and V. Blum
    'ELSI: A unified software interface for Kohn-Sham electronic structure solvers'
    Computer Physics Communications 222, 267-285 (2018).
    http://dx.doi.org/10.1016/j.cpc.2017.09.007


  For the real-space grid partitioning and parallelization used in this calculation, please cite:

    Ville Havu, Volker Blum, Paula Havu, and Matthias Scheffler,
    'Efficient O(N) integration for all-electron electronic structure calculation'
    'using numerically tabulated basis functions'
    Journal of Computational Physics 228, 8367-8379 (2009).
    http://dx.doi.org/10.1016/j.jcp.2009.08.008

  Of course, there are many other important community references, e.g., those cited in the
  above references. Our list is limited to references that describe implementations in the
  FHI-aims code. The reason is purely practical (length of this list) - please credit others as well.

------------------------------------------------------------
          Leaving FHI-aims.
          Date     :  20220118, Time     :  172604.792

          Computational steps:
          | Number of self-consistency cycles          :           63
          | Number of SCF (re)initializations          :            5
          | Number of relaxation steps                 :            4

          Detailed time accounting                     :  max(cpu_time)    wall_clock(cpu1)
          | Total time                                 :       95.550 s          96.951 s
          | Preparation time                           :        0.792 s           1.085 s
          | Boundary condition initalization           :        0.750 s           0.747 s
          | Grid partitioning                          :        0.144 s           0.147 s
          | Preloading free-atom quantities on grid    :        0.257 s           0.269 s
          | Free-atom superposition energy             :        0.022 s           0.022 s
          | Total time for integrations                :       14.241 s          14.266 s
          | Total time for solution of K.-S. equations :        4.373 s           4.490 s
          | Total time for EV reorthonormalization     :        0.044 s           0.046 s
          | Total time for density & force components  :       64.305 s          64.327 s
          | Total time for mixing & preconditioning    :        0.745 s           0.734 s
          | Total time for Hartree multipole update    :        0.105 s           0.110 s
          | Total time for Hartree multipole sum       :        4.427 s           4.450 s
          | Total time for total energy evaluation     :        0.097 s           0.104 s
          | Total time NSC force correction            :        1.461 s           1.462 s
          | Total time for scaled ZORA corrections     :        0.000 s           0.000 s
          | Total time for vdW correction              :        2.736 s           2.838 s

          Partial memory accounting:
          | Residual value for overall tracked memory usage across tasks:     0.000000 MB (should be 0.000000 MB)
          | Peak values for overall tracked memory usage:
          |   Minimum:       51.900 MB (on task 71 after allocating d_wave)
          |   Maximum:       56.540 MB (on task 10 after allocating d_wave)
          |   Average:       53.984 MB
          | Largest tracked array allocation:
          |   Minimum:       20.395 MB (hamiltonian_shell on task 57)
          |   Maximum:       23.499 MB (hamiltonian_shell on task 10)
          |   Average:       21.850 MB
          Note:  These values currently only include a subset of arrays which are explicitly tracked.
          The "true" memory usage will be greater.

          Have a nice day.
------------------------------------------------------------
