------------------------------------------------------------
          Invoking FHI-aims ...

          When using FHI-aims, please cite the following reference:

            Volker Blum, Ralf Gehrke, Felix Hanke, Paula Havu,
            Ville Havu, Xinguo Ren, Karsten Reuter, and Matthias Scheffler,
            'Ab Initio Molecular Simulations with Numeric Atom-Centered Orbitals',
            Computer Physics Communications 180, 2175-2196 (2009)

          In addition, many other developments in FHI-aims are likely important for
          your particular application. A partial list of references is given at the end of
          this file. Thank you for giving credit to the authors of these developments.

          For any questions about FHI-aims, please visit our slack channel at

            https://fhi-aims.slack.com

          and our main development and support site at

            https://aims-git.rz-berlin.mpg.de .

          The latter site, in particular, has a wiki to collect information, as well
          as an issue tracker to log discussions, suggest improvements, and report issues
          or bugs. https://aims-git.rz-berlin.mpg.de is also the main development site
          of the project and all new and updated code versions can be obtained there.
          Please send an email to aims-coordinators@fhi-berlin.mpg.de and we will add
          you to these sites. They are for you and everyone is welcome there.

------------------------------------------------------------



  Date     :  20211215, Time     :  153351.719
  Time zero on CPU 1             :   0.202825000000000E+00  s.
  Internal wall clock time zero  :           408814431.719  s.

  FHI-aims created a unique identifier for this run for later identification
  aims_uuid : 1053A6A5-4EAF-406A-A911-3886BA54422A

  Build configuration of the current instance of FHI-aims
  -------------------------------------------------------
  FHI-aims version      : 210513
  Commit number         : 1a2d0b161
  CMake host system     : Linux-4.12.14-122.63-default
  CMake version         : 3.5.2
  Fortran compiler      : /mpcdf/soft/SLE_12/packages/x86_64/intel_parallel_studio/2020.1/compilers_and_libraries_2020.1.217/linux/mpi/intel64/bin/mpiifort (Intel) version 19.1.0.20200306
  Fortran compiler flags: -O3 -ip -fp-model precise
  C compiler            : /mpcdf/soft/SLE_12/packages/x86_64/intel/19.1.1/bin/icc (Intel) version 19.1.0.20200306
  C compiler flags      : -O3 -ip -fp-model precise -std=gnu99
  C++ compiler          : /mpcdf/soft/SLE_12/packages/x86_64/intel/19.1.1/bin/icpc (Intel) version 19.1.0.20200306
  C++ compiler flags    : -O3 -ip -fp-model precise -std=gnu99
  Using MPI
  Using ScaLAPACK
  Using LibXC
  Using i-PI
  Using RLSY
  Linking against: /mpcdf/soft/SLE_12/packages/x86_64/intel_parallel_studio/2020.1/mkl/lib/intel64/libmkl_intel_lp64.so
                   /mpcdf/soft/SLE_12/packages/x86_64/intel_parallel_studio/2020.1/mkl/lib/intel64/libmkl_sequential.so
                   /mpcdf/soft/SLE_12/packages/x86_64/intel_parallel_studio/2020.1/mkl/lib/intel64/libmkl_core.so
                   /mpcdf/soft/SLE_12/packages/x86_64/intel_parallel_studio/2020.1/mkl/lib/intel64/libmkl_blacs_intelmpi_lp64.so
                   /mpcdf/soft/SLE_12/packages/x86_64/intel_parallel_studio/2020.1/mkl/lib/intel64/libmkl_scalapack_lp64.so

  Using      160 parallel tasks.
  Task        0 on host co3611 reporting.
  Task        1 on host co3611 reporting.
  Task        2 on host co3611 reporting.
  Task        3 on host co3611 reporting.
  Task        4 on host co3611 reporting.
  Task        5 on host co3611 reporting.
  Task        6 on host co3611 reporting.
  Task        7 on host co3611 reporting.
  Task        8 on host co3611 reporting.
  Task        9 on host co3611 reporting.
  Task       10 on host co3611 reporting.
  Task       11 on host co3611 reporting.
  Task       12 on host co3611 reporting.
  Task       13 on host co3611 reporting.
  Task       14 on host co3611 reporting.
  Task       15 on host co3611 reporting.
  Task       16 on host co3611 reporting.
  Task       17 on host co3611 reporting.
  Task       18 on host co3611 reporting.
  Task       19 on host co3611 reporting.
  Task       20 on host co3611 reporting.
  Task       21 on host co3611 reporting.
  Task       22 on host co3611 reporting.
  Task       23 on host co3611 reporting.
  Task       24 on host co3611 reporting.
  Task       25 on host co3611 reporting.
  Task       26 on host co3611 reporting.
  Task       27 on host co3611 reporting.
  Task       28 on host co3611 reporting.
  Task       29 on host co3611 reporting.
  Task       30 on host co3611 reporting.
  Task       31 on host co3611 reporting.
  Task       32 on host co3611 reporting.
  Task       33 on host co3611 reporting.
  Task       34 on host co3611 reporting.
  Task       35 on host co3611 reporting.
  Task       36 on host co3611 reporting.
  Task       37 on host co3611 reporting.
  Task       38 on host co3611 reporting.
  Task       39 on host co3611 reporting.
  Task       40 on host co3613 reporting.
  Task       41 on host co3613 reporting.
  Task       42 on host co3613 reporting.
  Task       43 on host co3613 reporting.
  Task       44 on host co3613 reporting.
  Task       45 on host co3613 reporting.
  Task       46 on host co3613 reporting.
  Task       47 on host co3613 reporting.
  Task       48 on host co3613 reporting.
  Task       49 on host co3613 reporting.
  Task       50 on host co3613 reporting.
  Task       51 on host co3613 reporting.
  Task       52 on host co3613 reporting.
  Task       53 on host co3613 reporting.
  Task       54 on host co3613 reporting.
  Task       55 on host co3613 reporting.
  Task       56 on host co3613 reporting.
  Task       57 on host co3613 reporting.
  Task       58 on host co3613 reporting.
  Task       59 on host co3613 reporting.
  Task       60 on host co3613 reporting.
  Task       61 on host co3613 reporting.
  Task       62 on host co3613 reporting.
  Task       63 on host co3613 reporting.
  Task       64 on host co3613 reporting.
  Task       65 on host co3613 reporting.
  Task       66 on host co3613 reporting.
  Task       67 on host co3613 reporting.
  Task       68 on host co3613 reporting.
  Task       69 on host co3613 reporting.
  Task       70 on host co3613 reporting.
  Task       71 on host co3613 reporting.
  Task       72 on host co3613 reporting.
  Task       73 on host co3613 reporting.
  Task       74 on host co3613 reporting.
  Task       75 on host co3613 reporting.
  Task       76 on host co3613 reporting.
  Task       77 on host co3613 reporting.
  Task       78 on host co3613 reporting.
  Task       79 on host co3613 reporting.
  Task       80 on host co3615 reporting.
  Task       81 on host co3615 reporting.
  Task       82 on host co3615 reporting.
  Task       83 on host co3615 reporting.
  Task       84 on host co3615 reporting.
  Task       85 on host co3615 reporting.
  Task       86 on host co3615 reporting.
  Task       87 on host co3615 reporting.
  Task       88 on host co3615 reporting.
  Task       89 on host co3615 reporting.
  Task       90 on host co3615 reporting.
  Task       91 on host co3615 reporting.
  Task       92 on host co3615 reporting.
  Task       93 on host co3615 reporting.
  Task       94 on host co3615 reporting.
  Task       95 on host co3615 reporting.
  Task       96 on host co3615 reporting.
  Task       97 on host co3615 reporting.
  Task       98 on host co3615 reporting.
  Task       99 on host co3615 reporting.
  Task      100 on host co3615 reporting.
  Task      101 on host co3615 reporting.
  Task      102 on host co3615 reporting.
  Task      103 on host co3615 reporting.
  Task      104 on host co3615 reporting.
  Task      105 on host co3615 reporting.
  Task      106 on host co3615 reporting.
  Task      107 on host co3615 reporting.
  Task      108 on host co3615 reporting.
  Task      109 on host co3615 reporting.
  Task      110 on host co3615 reporting.
  Task      111 on host co3615 reporting.
  Task      112 on host co3615 reporting.
  Task      113 on host co3615 reporting.
  Task      114 on host co3615 reporting.
  Task      115 on host co3615 reporting.
  Task      116 on host co3615 reporting.
  Task      117 on host co3615 reporting.
  Task      118 on host co3615 reporting.
  Task      119 on host co3615 reporting.
  Task      120 on host co3616 reporting.
  Task      121 on host co3616 reporting.
  Task      122 on host co3616 reporting.
  Task      123 on host co3616 reporting.
  Task      124 on host co3616 reporting.
  Task      125 on host co3616 reporting.
  Task      126 on host co3616 reporting.
  Task      127 on host co3616 reporting.
  Task      128 on host co3616 reporting.
  Task      129 on host co3616 reporting.
  Task      130 on host co3616 reporting.
  Task      131 on host co3616 reporting.
  Task      132 on host co3616 reporting.
  Task      133 on host co3616 reporting.
  Task      134 on host co3616 reporting.
  Task      135 on host co3616 reporting.
  Task      136 on host co3616 reporting.
  Task      137 on host co3616 reporting.
  Task      138 on host co3616 reporting.
  Task      139 on host co3616 reporting.
  Task      140 on host co3616 reporting.
  Task      141 on host co3616 reporting.
  Task      142 on host co3616 reporting.
  Task      143 on host co3616 reporting.
  Task      144 on host co3616 reporting.
  Task      145 on host co3616 reporting.
  Task      146 on host co3616 reporting.
  Task      147 on host co3616 reporting.
  Task      148 on host co3616 reporting.
  Task      149 on host co3616 reporting.
  Task      150 on host co3616 reporting.
  Task      151 on host co3616 reporting.
  Task      152 on host co3616 reporting.
  Task      153 on host co3616 reporting.
  Task      154 on host co3616 reporting.
  Task      155 on host co3616 reporting.
  Task      156 on host co3616 reporting.
  Task      157 on host co3616 reporting.
  Task      158 on host co3616 reporting.
  Task      159 on host co3616 reporting.

  Performing system and environment tests:
  | Environment variable OMP_NUM_THREADS correctly set to 1.
  | Checking for ScaLAPACK...
  | Testing pdtran()...
  | All pdtran() tests passed.

  Obtaining array dimensions for all initial allocations:
  
  -----------------------------------------------------------------------
  Parsing control.in (first pass over file, find array dimensions only).
  The contents of control.in will be repeated verbatim below
  unless switched off by setting 'verbatim_writeout .false.' .
  in the first line of control.in .
  -----------------------------------------------------------------------
  
  ##### Physical settings  ################
  xc                 pbe
  spin               none
  charge      0.0
  relativistic       atomic_zora scalar
  #elsi_restart read
  # SCF settings
  use_symmetric_forces .true.
  relax_geometry trm 1E-3
  
  # k-grid settings  (to be adjusted)
  k_grid  2 2 1
  empty_states 8
  use_dipole_correction
  many_body_dispersion_nl    beta=0.81
  #
  #  FHI-aims code project
  # Volker Blum, Fritz Haber Institute Berlin, 2009
  #
  #  Suggested "tight" defaults for S atom (to be pasted into control.in file)
  #
  #  Revised Jan 04, 2011, following tests (SiC) done by Lydia Nemec:
  #     d and g functions of tier 2 now enabled by default.
  #
  ################################################################################
    species        S
  #     global species definitions
      nucleus             16
      mass                32.065
  #
      l_hartree           6
  #
      cut_pot             4.0          2.0  1.0
      basis_dep_cutoff    1e-4
  #
      radial_base         44 7.0
      radial_multiplier   2
      angular_grids       specified
        division   0.4665  110
        division   0.5810  194
        division   0.7139  302
        division   0.8274  434
  #      division   0.9105  590
  #      division   1.0975  770
  #      division   1.2028  974
  #      outer_grid  974
        outer_grid  434
  ################################################################################
  #
  #  Definition of "minimal" basis
  #
  ################################################################################
  #     valence basis states
      valence      3  s   2.
      valence      3  p   4.
  #     ion occupancy
      ion_occ      3  s   1.
      ion_occ      3  p   3.
  ################################################################################
  #
  #  Suggested additional basis functions. For production calculations,
  #  uncomment them one after another (the most important basis functions are
  #  listed first).
  #
  #  Constructed for dimers: 1.6 A, 1.9 A, 2.5 A, 3.25 A, 4.0 A
  #
  ################################################################################
  #  "First tier" - improvements: -652.81 meV to -45.53 meV
       ionic 3 d auto
       hydro 2 p 1.8
       hydro 4 f 7
       ionic 3 s auto
  #  "Second tier" - improvements: -30.20 meV to -1.74 meV
       hydro 4 d 6.2
       hydro 5 g 10.8
  #     hydro 4 p 4.9
  #     hydro 5 f 10
  #     hydro 1 s 0.8
  #  "Third tier" - improvements: -1.04 meV to -0.20 meV
  #     hydro 3 d 3.9
  #     hydro 3 d 2.7
  #     hydro 5 g 12
  #     hydro 4 p 10.4
  #     hydro 5 f 12.4
  #     hydro 2 s 1.9
  #  "Fourth tier" - improvements: -0.35 meV to -0.06 meV
  #     hydro 4 d 10.4
  #     hydro 4 p 7.2
  #     hydro 4 d 10
  #     hydro 5 g 19.2
  #     hydro 4 s 12
  
  ################################################################################
  #
  # For methods that use the localized form of the "resolution of identity" for
  # the two-electron Coulomb operator (RI_method LVL), particularly Hartree-Fock and
  # hybrid density functional calculations, the highest accuracy can be obtained by
  # uncommenting the line beginning with "for_aux"  below, thus adding an extra g radial
  # function to the construction of the product basis set for the expansion.
  # See Ref. New J. Phys. 17, 093020 (2015) for more information, particularly Figs. 1 and 6.
  #
  ################################################################################
  #
  # for_aux hydro 5 g 6.0
  ################################################################################
  #
  #  FHI-aims code project
  # Volker Blum, Fritz Haber Institute Berlin, 2009
  #
  #  Suggested "tight" defaults for Mo atom (to be pasted into control.in file)
  #
  ################################################################################
    species        Mo
  #     global species definitions
      nucleus             42
      mass                95.94
  #
      l_hartree           6
  #
      cut_pot             4.0  2.0  1.0
      basis_dep_cutoff    1e-4
  #
      radial_base         59 7.0
      radial_multiplier   2
      angular_grids specified
        division   0.3117   50
        division   0.6750  110
        division   1.0351  194
        division   1.2073  302
        division   1.6402  434
  #      division   1.9185  590
  #      division   2.0237  770
  #      division   2.0980  974
  #      division   2.7972 1202
  #      outer_grid  974
        outer_grid  434
  ################################################################################
  #
  #  Definition of "minimal" basis
  #
  ################################################################################
  #     valence basis states
      valence      5  s   1.
      valence      4  p   6.
      valence      4  d   5.
  #     ion occupancy
      ion_occ     5  s   0.
      ion_occ     4  p   6.
      ion_occ     4  d   4.
  ################################################################################
  #
  #  Suggested additional basis functions. For production calculations,
  #  uncomment them one after another (the most important basis functions are
  #  listed first).
  #
  #  Constructed for dimers: 1.675 A, 1.9 A, 2.375 A, 3.00 A, 4.00 A
  #
  ################################################################################
  #  "First tier"  - max. impr. -711.23  meV, min. impr. -21.07 meV
       hydro 4 f 8.4
       hydro 3 d 2.8
       ionic 5 p auto
       hydro 5 g 12
       ionic 5 s auto
  #  "Second tier" - max. impr. -39.38  meV, min. impr. -2.68 meV
  #     hydro 4 f 12.4
  #     hydro 3 d 3.3
  #     hydro 6 h 17.2
  #     hydro 4 f 7.6
  #     hydro 3 p 3.0
  #     hydro 1 s 0.65
  #  "Third tier"  - max. impr. -5.50 meV, min. impr. -0.47 meV
  #     hydro 4 f 29.2
  #     hydro 5 g 11.2
  #     hydro 3 d 6.8
  #     hydro 6 h 14.8
  #     hydro 2 p 2.3
  #     hydro 4 s 3.8
  #  "Fourth tier"  - max. impr. -0.58 meV, min. impr. -0.19 meV
  #     hydro 5 f 6.8
  #     hydro 5 d 14.8
  #     hydro 6 s 7.8
  #     hydro 5 g 20.8
  #     hydro 5 d 10.4
  #     hydro 5 p 9.8
  #  Further functions - -0.17 meV and below
  #     hydro 5 d 3.2
  
  -----------------------------------------------------------------------
  Completed first pass over input file control.in .
  -----------------------------------------------------------------------
  
  
  -----------------------------------------------------------------------
  Parsing geometry.in (first pass over file, find array dimensions only).
  The contents of geometry.in will be repeated verbatim below
  unless switched off by setting 'verbatim_writeout .false.' .
  in the first line of geometry.in .
  -----------------------------------------------------------------------
  
  #
  # This is the geometry file that corresponds to the current relaxation step.
  # If you do not want this file to be written, set the "write_restart_geometry" flag to .false.
  #  aims_uuid : 3D133E68-63FD-4E8C-AC8D-5D3B88D9766D
  #
    set_vacuum_level        53.672829
  lattice_vector     15.76960250      0.00000000      0.00000000
  lattice_vector     -7.88732950     13.65525595      0.00000000
  lattice_vector      0.00000000      0.00000000     99.30554027
  atom       1.60801641      0.96859808      3.07821000 Mo
  atom       0.03003358      1.87934215      4.64490700 S
  atom       0.03202590      1.87571618      1.50673876 S
  atom       0.03275357      3.69746373      3.07279368 Mo
  atom      -1.54655571      4.61035879      4.64121335 S
  atom      -1.54566910      4.61085331      1.50509370 S
  atom      -1.54787544      6.43465080      3.07276920 Mo
  atom      -3.12424187      7.34045841      4.64519497 S
  atom      -3.12643313      7.34396986      1.50646108 S
  atom      -3.12505823      9.16301943      3.07818736 Mo
  atom      -4.70149847     10.07270135      4.64891866 S
  atom      -4.70153874     10.07434209      1.50966290 S
  atom      -4.70144555     11.89355497      3.07998076 Mo
  atom      -6.27901094     12.80416624      4.64904329 S
  atom      -6.27758317     12.80333362      1.50953275 S
  atom       4.76321303      0.96867603      3.07824204 Mo
  atom       3.18512731      1.88390307      4.64511749 S
  atom       3.18515404      1.87740700      1.50929732 S
  atom       3.18510465      3.70371653      3.07269027 Mo
  atom       1.60401605      4.61300849      4.64138633 S
  atom       1.60568892      4.59629032      1.49386091 S
  atom       1.58095478      6.41576440      3.05941820 Mo
  atom       0.03043204      7.33741377      4.64160730 S
  atom       0.01680016      7.34711578      1.49356849 S
  atom       0.03237373      9.16107025      3.07257404 Mo
  atom      -1.54341960     10.07067818      4.64529413 S
  atom      -1.54911398     10.07397023      1.50903415 S
  atom      -1.54851340     11.89421907      3.07819176 Mo
  atom      -3.12471886     12.80432453      4.64892014 S
  atom      -3.12615549     12.80353264      1.50966199 S
  atom       7.91701460      0.96949609      3.07534527 Mo
  atom       6.34109296      1.87974294      4.64552728 S
  atom       6.33911412      1.87619056      1.50625042 S
  atom       6.33670674      3.69720402      3.07291467 Mo
  atom       4.76558026      4.61322423      4.64147748 S
  atom       4.76407569      4.59673533      1.49398385 S
  atom       4.78758984      6.41631664      3.05966667 Mo
  atom       3.18391750      7.34189932      4.59080450 S
  atom       3.18355464      7.34199736      6.53056180 S
  atom       3.18413945      7.34181965      1.51959522 S
  atom       3.18423867      9.19321313      3.05945002 Mo
  atom       1.61058788     10.07488666      4.64160105 S
  atom       1.59539407     10.08184810      1.49361315 S
  atom       1.60297702     11.89313822      3.07279072 Mo
  atom       0.03011673     12.80509658      4.64519170 S
  atom       0.02599312     12.80523132      1.50648781 S
  atom      11.06946711      0.96979280      3.07300214 Mo
  atom       9.49438311      1.88043179      4.64326613 S
  atom       9.49277713      1.87956964      1.50411863 S
  atom       9.49344923      3.69995613      3.07307100 Mo
  atom       7.91641633      4.61027036      4.64058035 S
  atom       7.91549244      4.61080655      1.50594783 S
  atom       7.91693258      6.43487980      3.07291764 Mo
  atom       6.33792941      7.33715434      4.64151889 S
  atom       6.35146261      7.34671867      1.49395224 S
  atom       6.33499883      9.16061076      3.07270524 Mo
  atom       4.75683864     10.07492238      4.64142244 S
  atom       4.77214295     10.08184470      1.49387319 S
  atom       4.76375057     11.89344655      3.07281848 Mo
  atom       3.18333945     12.80442840      4.64124839 S
  atom       3.18335737     12.80340191      1.50510049 S
  atom      14.22326747      0.96982673      3.07529461 Mo
  atom      12.64627875      1.88008925      4.64301904 S
  atom      12.64783937      1.87917862      1.50428593 S
  atom      12.64590084      3.70079498      3.07299214 Mo
  atom      11.06952512      4.60921763      4.64323102 S
  atom      11.06945990      4.61103802      1.50414220 S
  atom      11.06942744      6.43076033      3.07533942 Mo
  atom       9.49297727      7.34005281      4.64552439 S
  atom       9.49505425      7.34354793      1.50625397 S
  atom       9.49273581      9.16208456      3.07824582 Mo
  atom       7.91088095     10.07079947      4.64511422 S
  atom       7.91650708     10.07402321      1.50932029 S
  atom       7.91471904     11.89427133      3.07821813 Mo
  atom       6.33679277     12.80515051      4.64490989 S
  atom       6.34091543     12.80522196      1.50676013 S
  #
  # What follows is the current estimated Hessian matrix constructed by the BFGS algorithm.
  # This is NOT the true Hessian matrix of the system.
  # If you do not want this information here, switch it off using the "hessian_to_restart_geometry" keyword.
  #
  trust_radius             0.0187818400
  hessian_file
  
  -----------------------------------------------------------------------
  Completed first pass over input file geometry.in .
  -----------------------------------------------------------------------
  

  Basic array size parameters:
  | Number of species                 :        2
  | Number of atoms                   :       76
  | Number of lattice vectors         :        3
  | Max. basis fn. angular momentum   :        4
  | Max. atomic/ionic basis occupied n:        5
  | Max. number of basis fn. types    :        3
  | Max. radial fns per species/type  :       10
  | Max. logarithmic grid size        :     1436
  | Max. radial integration grid size :      119
  | Max. angular integration grid size:      434
  | Max. angular grid division number :        8
  | Radial grid for Hartree potential :     1436
  | Number of spin channels           :        1

------------------------------------------------------------
          Reading file control.in.
------------------------------------------------------------
  XC: Using PBE gradient-corrected functionals.
  Spin treatment: No spin polarisation.
  Charge =   0.000000E+00: Neutral system requested explicitly.
  Scalar relativistic treatment of kinetic energy: on-site free-atom approximation to ZORA.
  Geometry relaxation: Modified BFGS - TRM (trust radius method) for lattice optimization.
  Convergence accuracy for geometry relaxation: Maximum force <   0.100000E-02 eV/A.
  Found k-point grid:         2         2         1
  Number of empty states per atom:        8
  Using dipole correction.
  Using libMBD for calculating MBD and TS energies
 
  Reading configuration options for species S                   .
  | Found nuclear charge :  16.0000
  | Found atomic mass :    32.0650000000000      amu
  | Found l_max for Hartree potential  :   6
  | Found cutoff potl. onset [A], width [A], scale factor :    4.00000    2.00000    1.00000
  | Threshold for basis-dependent cutoff potential is   0.100000E-03
  | Found data for basic radial integration grid :    44 points, outermost radius =    7.000 A
  | Found multiplier for basic radial grid :   2
  | Found angular grid specification: user-specified.
  | Specified grid contains     5 separate shells.
  | Check grid settings after all constraints further below.
  | Found free-atom valence shell :  3 s   2.000
  | Found free-atom valence shell :  3 p   4.000
  | Found free-ion valence shell :  3 s   1.000
  | Found free-ion valence shell :  3 p   3.000
  | Found ionic basis function :  3 d , default cutoff radius.
  | Found hydrogenic basis function :  2 p   1.800
  | Found hydrogenic basis function :  4 f   7.000
  | Found ionic basis function :  3 s , default cutoff radius.
  | Found hydrogenic basis function :  4 d   6.200
  | Found hydrogenic basis function :  5 g  10.800
  Species S                   : Missing cutoff potential type.
  Defaulting to exp(1/x)/(1-x)^2 type cutoff potential.
  Species S : No 'logarithmic' tag. Using default grid for free atom:
  | Default logarithmic grid data [bohr] : 0.1000E-03 0.1000E+03 0.1012E+01
  | Will include ionic basis functions of  2.0-fold positive S                    ion.
  Species S : On-site basis accuracy parameter (for Gram-Schmidt orthonormalisation) not specified.
  Using default value basis_acc =  0.1000000E-03.
  Species S                   : Using default innermost maximum threshold i_radial=  2 for radial functions.
  Species S                   : Default cutoff onset for free atom density etc. : 0.40000000E+01 AA.
  Species S                   : Basic radial grid will be enhanced according to radial_multiplier =   2, to contain    89 grid points.
 
  Reading configuration options for species Mo                  .
  | Found nuclear charge :  42.0000
  | Found atomic mass :    95.9400000000000      amu
  | Found l_max for Hartree potential  :   6
  | Found cutoff potl. onset [A], width [A], scale factor :    4.00000    2.00000    1.00000
  | Threshold for basis-dependent cutoff potential is   0.100000E-03
  | Found data for basic radial integration grid :    59 points, outermost radius =    7.000 A
  | Found multiplier for basic radial grid :   2
  | Found angular grid specification: user-specified.
  | Specified grid contains     6 separate shells.
  | Check grid settings after all constraints further below.
  | Found free-atom valence shell :  5 s   1.000
  | Found free-atom valence shell :  4 p   6.000
  | Found free-atom valence shell :  4 d   5.000
  | Found free-ion valence shell :  5 s   0.000
  | Found free-ion valence shell :  4 p   6.000
  | Found free-ion valence shell :  4 d   4.000
  | Found hydrogenic basis function :  4 f   8.400
  | Found hydrogenic basis function :  3 d   2.800
  | Found ionic basis function :  5 p , default cutoff radius.
  | Found hydrogenic basis function :  5 g  12.000
  | Found ionic basis function :  5 s , default cutoff radius.
  Species Mo                  : Missing cutoff potential type.
  Defaulting to exp(1/x)/(1-x)^2 type cutoff potential.
  Species Mo: No 'logarithmic' tag. Using default grid for free atom:
  | Default logarithmic grid data [bohr] : 0.1000E-03 0.1000E+03 0.1012E+01
  | Will include ionic basis functions of  2.0-fold positive Mo                   ion.
  Species Mo: On-site basis accuracy parameter (for Gram-Schmidt orthonormalisation) not specified.
  Using default value basis_acc =  0.1000000E-03.
  Species Mo                  : Using default innermost maximum threshold i_radial=  2 for radial functions.
  Species Mo                  : Default cutoff onset for free atom density etc. : 0.40000000E+01 AA.
  Species Mo                  : Basic radial grid will be enhanced according to radial_multiplier =   2, to contain   119 grid points.
 
  Finished reading input file 'control.in'.
 
------------------------------------------------------------


------------------------------------------------------------
          Reading geometry description geometry.in.
------------------------------------------------------------
  Vacuum level in z-axis :   0.536728E+02
  Found keyword 'hessian_file', indicating that this is the continuation of a structure optimization.
  Verifying the existence of the file 'hessian.aims' on all processors
  | The smallest distance between any two atoms is         1.93975734 AA.
  | The first atom of this pair is atom number                     38 .
  | The second atom of this pair is atom number                    39 .
  | Wigner-Seitz cell of the first atom image           0     0     0 .
  | (The Wigner-Seitz cell of the second atom is 0 0 0  by definition.)

  Symmetry information by spglib:
  | Precision set to  0.1E-04
  | Number of Operations  : 1
  | Space group           : 1
  | International         : P1  m
  | Schoenflies           : C1^1
  Input structure read successfully.
  The structure contains       76 atoms,  and a total of       1866.000 electrons.

  Input geometry:
  | Unit cell:
  |       15.76960250        0.00000000        0.00000000
  |       -7.88732950       13.65525595        0.00000000
  |        0.00000000        0.00000000       99.30554027
  | Atomic structure:
  |       Atom                x [A]            y [A]            z [A]
  |    1: Species Mo            1.60801641        0.96859808        3.07821000
  |    2: Species S             0.03003358        1.87934215        4.64490700
  |    3: Species S             0.03202590        1.87571618        1.50673876
  |    4: Species Mo            0.03275357        3.69746373        3.07279368
  |    5: Species S            -1.54655571        4.61035879        4.64121335
  |    6: Species S            -1.54566910        4.61085331        1.50509370
  |    7: Species Mo           -1.54787544        6.43465080        3.07276920
  |    8: Species S            -3.12424187        7.34045841        4.64519497
  |    9: Species S            -3.12643313        7.34396986        1.50646108
  |   10: Species Mo           -3.12505823        9.16301943        3.07818736
  |   11: Species S            -4.70149847       10.07270135        4.64891866
  |   12: Species S            -4.70153874       10.07434209        1.50966290
  |   13: Species Mo           -4.70144555       11.89355497        3.07998076
  |   14: Species S            -6.27901094       12.80416624        4.64904329
  |   15: Species S            -6.27758317       12.80333362        1.50953275
  |   16: Species Mo            4.76321303        0.96867603        3.07824204
  |   17: Species S             3.18512731        1.88390307        4.64511749
  |   18: Species S             3.18515404        1.87740700        1.50929732
  |   19: Species Mo            3.18510465        3.70371653        3.07269027
  |   20: Species S             1.60401605        4.61300849        4.64138633
  |   21: Species S             1.60568892        4.59629032        1.49386091
  |   22: Species Mo            1.58095478        6.41576440        3.05941820
  |   23: Species S             0.03043204        7.33741377        4.64160730
  |   24: Species S             0.01680016        7.34711578        1.49356849
  |   25: Species Mo            0.03237373        9.16107025        3.07257404
  |   26: Species S            -1.54341960       10.07067818        4.64529413
  |   27: Species S            -1.54911398       10.07397023        1.50903415
  |   28: Species Mo           -1.54851340       11.89421907        3.07819176
  |   29: Species S            -3.12471886       12.80432453        4.64892014
  |   30: Species S            -3.12615549       12.80353264        1.50966199
  |   31: Species Mo            7.91701460        0.96949609        3.07534527
  |   32: Species S             6.34109296        1.87974294        4.64552728
  |   33: Species S             6.33911412        1.87619056        1.50625042
  |   34: Species Mo            6.33670674        3.69720402        3.07291467
  |   35: Species S             4.76558026        4.61322423        4.64147748
  |   36: Species S             4.76407569        4.59673533        1.49398385
  |   37: Species Mo            4.78758984        6.41631664        3.05966667
  |   38: Species S             3.18391750        7.34189932        4.59080450
  |   39: Species S             3.18355464        7.34199736        6.53056180
  |   40: Species S             3.18413945        7.34181965        1.51959522
  |   41: Species Mo            3.18423867        9.19321313        3.05945002
  |   42: Species S             1.61058788       10.07488666        4.64160105
  |   43: Species S             1.59539407       10.08184810        1.49361315
  |   44: Species Mo            1.60297702       11.89313822        3.07279072
  |   45: Species S             0.03011673       12.80509658        4.64519170
  |   46: Species S             0.02599312       12.80523132        1.50648781
  |   47: Species Mo           11.06946711        0.96979280        3.07300214
  |   48: Species S             9.49438311        1.88043179        4.64326613
  |   49: Species S             9.49277713        1.87956964        1.50411863
  |   50: Species Mo            9.49344923        3.69995613        3.07307100
  |   51: Species S             7.91641633        4.61027036        4.64058035
  |   52: Species S             7.91549244        4.61080655        1.50594783
  |   53: Species Mo            7.91693258        6.43487980        3.07291764
  |   54: Species S             6.33792941        7.33715434        4.64151889
  |   55: Species S             6.35146261        7.34671867        1.49395224
  |   56: Species Mo            6.33499883        9.16061076        3.07270524
  |   57: Species S             4.75683864       10.07492238        4.64142244
  |   58: Species S             4.77214295       10.08184470        1.49387319
  |   59: Species Mo            4.76375057       11.89344655        3.07281848
  |   60: Species S             3.18333945       12.80442840        4.64124839
  |   61: Species S             3.18335737       12.80340191        1.50510049
  |   62: Species Mo           14.22326747        0.96982673        3.07529461
  |   63: Species S            12.64627875        1.88008925        4.64301904
  |   64: Species S            12.64783937        1.87917862        1.50428593
  |   65: Species Mo           12.64590084        3.70079498        3.07299214
  |   66: Species S            11.06952512        4.60921763        4.64323102
  |   67: Species S            11.06945990        4.61103802        1.50414220
  |   68: Species Mo           11.06942744        6.43076033        3.07533942
  |   69: Species S             9.49297727        7.34005281        4.64552439
  |   70: Species S             9.49505425        7.34354793        1.50625397
  |   71: Species Mo            9.49273581        9.16208456        3.07824582
  |   72: Species S             7.91088095       10.07079947        4.64511422
  |   73: Species S             7.91650708       10.07402321        1.50932029
  |   74: Species Mo            7.91471904       11.89427133        3.07821813
  |   75: Species S             6.33679277       12.80515051        4.64490989
  |   76: Species S             6.34091543       12.80522196        1.50676013

  Lattice parameters for 3D lattice (in Angstroms) :    15.769602   15.769464   99.305540
  Angle(s) between unit vectors (in degrees)       :    90.000000   90.000000  120.010899


  Quantities derived from the lattice vectors:
  | Reciprocal lattice vector 1:  0.398437  0.230138  0.000000
  | Reciprocal lattice vector 2:  0.000000  0.460129  0.000000
  | Reciprocal lattice vector 3:  0.000000  0.000000  0.063271
  | Unit cell volume                               :   0.213843E+05  A^3

  Fractional coordinates:
                         L1                L2                L3
       atom_frac         0.13744687        0.07093225        0.03099736  Mo
       atom_frac         0.07074046        0.13762775        0.04677390  S
       atom_frac         0.07073399        0.13736221        0.01517276  S
       atom_frac         0.13750652        0.27077220        0.03094282  Mo
       atom_frac         0.07079479        0.33762522        0.04673670  S
       atom_frac         0.07086912        0.33766143        0.01515619  S
       atom_frac         0.13753068        0.47122154        0.03094258  Mo
       atom_frac         0.07074597        0.53755553        0.04677680  S
       atom_frac         0.07073563        0.53781268        0.01516996  S
       atom_frac         0.13745038        0.67102510        0.03099714  Mo
       atom_frac         0.07080289        0.73764281        0.04681429  S
       atom_frac         0.07086043        0.73776296        0.01520220  S
       atom_frac         0.13749989        0.87098733        0.03101520  Mo
       atom_frac         0.07081509        0.93767310        0.04681555  S
       atom_frac         0.07087513        0.93761213        0.01520089  S
       atom_frac         0.33753065        0.07093796        0.03099769  Mo
       atom_frac         0.27098192        0.13796175        0.04677602  S
       atom_frac         0.27074568        0.13748604        0.01519852  S
       atom_frac         0.33763602        0.27123011        0.03094178  Mo
       atom_frac         0.27067948        0.33781926        0.04673844  S
       atom_frac         0.27017322        0.33659496        0.01504308  S
       atom_frac         0.33524786        0.46983846        0.03080813  Mo
       atom_frac         0.27068222        0.53733257        0.04674067  S
       atom_frac         0.27017315        0.53804307        0.01504013  S
       atom_frac         0.33760166        0.67088235        0.03094061  Mo
       atom_frac         0.27099248        0.73749465        0.04677779  S
       atom_frac         0.27075196        0.73773573        0.01519587  S
       atom_frac         0.33746154        0.87103597        0.03099718  Mo
       atom_frac         0.27084445        0.93768470        0.04681431  S
       atom_frac         0.27072434        0.93762670        0.01520219  S
       atom_frac         0.53755314        0.07099802        0.03096852  Mo
       atom_frac         0.47095923        0.13765710        0.04678014  S
       atom_frac         0.47070363        0.13739695        0.01516784  S
       atom_frac         0.53725047        0.27075318        0.03094404  Mo
       atom_frac         0.47117210        0.33783506        0.04673936  S
       atom_frac         0.47047274        0.33662755        0.01504432  S
       atom_frac         0.53861088        0.46987890        0.03081063  Mo
       atom_frac         0.47081893        0.53766105        0.04622909  S
       atom_frac         0.47079951        0.53766823        0.06576231  S
       atom_frac         0.47083009        0.53765522        0.01530222  S
       atom_frac         0.53864862        0.67323624        0.03080845  Mo
       atom_frac         0.47115214        0.73780284        0.04674061  S
       atom_frac         0.47044364        0.73831264        0.01504058  S
       atom_frac         0.53726785        0.87095681        0.03094279  Mo
       atom_frac         0.47093076        0.93774124        0.04677676  S
       atom_frac         0.47067420        0.93775110        0.01517023  S
       atom_frac         0.73747092        0.07101975        0.03094492  Mo
       atom_frac         0.67094449        0.13770755        0.04675737  S
       atom_frac         0.67081107        0.13764441        0.01514637  S
       atom_frac         0.73753022        0.27095473        0.03094561  Mo
       atom_frac         0.67086831        0.33761874        0.04673033  S
       atom_frac         0.67082936        0.33765801        0.01516479  S
       atom_frac         0.73773226        0.47123831        0.03094407  Mo
       atom_frac         0.67065093        0.53731357        0.04673978  S
       atom_frac         0.67185943        0.53801399        0.01504400  S
       atom_frac         0.73725407        0.67084870        0.03094193  Mo
       atom_frac         0.67066709        0.73780546        0.04673881  S
       atom_frac         0.67189113        0.73831239        0.01504320  S
       atom_frac         0.73771371        0.87097939        0.03094307  Mo
       atom_frac         0.67086203        0.93769230        0.04673705  S
       atom_frac         0.67082557        0.93761713        0.01515626  S
       atom_frac         0.93746454        0.07102223        0.03096801  Mo
       atom_frac         0.87080354        0.13768246        0.04675488  S
       atom_frac         0.87086915        0.13761577        0.01514806  S
       atom_frac         0.93746780        0.27101616        0.03094482  Mo
       atom_frac         0.87077828        0.33754165        0.04675702  S
       atom_frac         0.87084082        0.33767496        0.01514661  S
       atom_frac         0.93749097        0.47093664        0.03096846  Mo
       atom_frac         0.87082858        0.53752583        0.04678011  S
       atom_frac         0.87108831        0.53778179        0.01516787  S
       atom_frac         0.93755007        0.67095663        0.03099772  Mo
       atom_frac         0.87052380        0.73750353        0.04677598  S
       atom_frac         0.87099865        0.73773961        0.01519875  S
       atom_frac         0.93755673        0.87103979        0.03099745  Mo
       atom_frac         0.87085886        0.93774518        0.04677392  S
       atom_frac         0.87112291        0.93775042        0.01517297  S

 
  Finished reading input file 'control.in'.
 

------------------------------------------------------------
          Reading geometry description geometry.in.
------------------------------------------------------------
 
  Consistency checks for stacksize environment parameter are next.
 
  | Maximum stacksize for task 0: unlimited
  | Maximum stacksize for task 1: unlimited
  | Maximum stacksize for task 2: unlimited
  | Maximum stacksize for task 3: unlimited
  | Maximum stacksize for task 4: unlimited
  | Maximum stacksize for task 5: unlimited
  | Maximum stacksize for task 6: unlimited
  | Maximum stacksize for task 7: unlimited
  | Maximum stacksize for task 8: unlimited
  | Maximum stacksize for task 9: unlimited
  | Maximum stacksize for task 10: unlimited
  | Maximum stacksize for task 11: unlimited
  | Maximum stacksize for task 12: unlimited
  | Maximum stacksize for task 13: unlimited
  | Maximum stacksize for task 14: unlimited
  | Maximum stacksize for task 15: unlimited
  | Maximum stacksize for task 16: unlimited
  | Maximum stacksize for task 17: unlimited
  | Maximum stacksize for task 18: unlimited
  | Maximum stacksize for task 19: unlimited
  | Maximum stacksize for task 20: unlimited
  | Maximum stacksize for task 21: unlimited
  | Maximum stacksize for task 22: unlimited
  | Maximum stacksize for task 23: unlimited
  | Maximum stacksize for task 24: unlimited
  | Maximum stacksize for task 25: unlimited
  | Maximum stacksize for task 26: unlimited
  | Maximum stacksize for task 27: unlimited
  | Maximum stacksize for task 28: unlimited
  | Maximum stacksize for task 29: unlimited
  | Maximum stacksize for task 30: unlimited
  | Maximum stacksize for task 31: unlimited
  | Maximum stacksize for task 32: unlimited
  | Maximum stacksize for task 33: unlimited
  | Maximum stacksize for task 34: unlimited
  | Maximum stacksize for task 35: unlimited
  | Maximum stacksize for task 36: unlimited
  | Maximum stacksize for task 37: unlimited
  | Maximum stacksize for task 38: unlimited
  | Maximum stacksize for task 39: unlimited
  | Maximum stacksize for task 40: unlimited
  | Maximum stacksize for task 41: unlimited
  | Maximum stacksize for task 42: unlimited
  | Maximum stacksize for task 43: unlimited
  | Maximum stacksize for task 44: unlimited
  | Maximum stacksize for task 45: unlimited
  | Maximum stacksize for task 46: unlimited
  | Maximum stacksize for task 47: unlimited
  | Maximum stacksize for task 48: unlimited
  | Maximum stacksize for task 49: unlimited
  | Maximum stacksize for task 50: unlimited
  | Maximum stacksize for task 51: unlimited
  | Maximum stacksize for task 52: unlimited
  | Maximum stacksize for task 53: unlimited
  | Maximum stacksize for task 54: unlimited
  | Maximum stacksize for task 55: unlimited
  | Maximum stacksize for task 56: unlimited
  | Maximum stacksize for task 57: unlimited
  | Maximum stacksize for task 58: unlimited
  | Maximum stacksize for task 59: unlimited
  | Maximum stacksize for task 60: unlimited
  | Maximum stacksize for task 61: unlimited
  | Maximum stacksize for task 62: unlimited
  | Maximum stacksize for task 63: unlimited
  | Maximum stacksize for task 64: unlimited
  | Maximum stacksize for task 65: unlimited
  | Maximum stacksize for task 66: unlimited
  | Maximum stacksize for task 67: unlimited
  | Maximum stacksize for task 68: unlimited
  | Maximum stacksize for task 69: unlimited
  | Maximum stacksize for task 70: unlimited
  | Maximum stacksize for task 71: unlimited
  | Maximum stacksize for task 72: unlimited
  | Maximum stacksize for task 73: unlimited
  | Maximum stacksize for task 74: unlimited
  | Maximum stacksize for task 75: unlimited
  | Maximum stacksize for task 76: unlimited
  | Maximum stacksize for task 77: unlimited
  | Maximum stacksize for task 78: unlimited
  | Maximum stacksize for task 79: unlimited
  | Maximum stacksize for task 80: unlimited
  | Maximum stacksize for task 81: unlimited
  | Maximum stacksize for task 82: unlimited
  | Maximum stacksize for task 83: unlimited
  | Maximum stacksize for task 84: unlimited
  | Maximum stacksize for task 85: unlimited
  | Maximum stacksize for task 86: unlimited
  | Maximum stacksize for task 87: unlimited
  | Maximum stacksize for task 88: unlimited
  | Maximum stacksize for task 89: unlimited
  | Maximum stacksize for task 90: unlimited
  | Maximum stacksize for task 91: unlimited
  | Maximum stacksize for task 92: unlimited
  | Maximum stacksize for task 93: unlimited
  | Maximum stacksize for task 94: unlimited
  | Maximum stacksize for task 95: unlimited
  | Maximum stacksize for task 96: unlimited
  | Maximum stacksize for task 97: unlimited
  | Maximum stacksize for task 98: unlimited
  | Maximum stacksize for task 99: unlimited
  | Maximum stacksize for task 100: unlimited
  | Maximum stacksize for task 101: unlimited
  | Maximum stacksize for task 102: unlimited
  | Maximum stacksize for task 103: unlimited
  | Maximum stacksize for task 104: unlimited
  | Maximum stacksize for task 105: unlimited
  | Maximum stacksize for task 106: unlimited
  | Maximum stacksize for task 107: unlimited
  | Maximum stacksize for task 108: unlimited
  | Maximum stacksize for task 109: unlimited
  | Maximum stacksize for task 110: unlimited
  | Maximum stacksize for task 111: unlimited
  | Maximum stacksize for task 112: unlimited
  | Maximum stacksize for task 113: unlimited
  | Maximum stacksize for task 114: unlimited
  | Maximum stacksize for task 115: unlimited
  | Maximum stacksize for task 116: unlimited
  | Maximum stacksize for task 117: unlimited
  | Maximum stacksize for task 118: unlimited
  | Maximum stacksize for task 119: unlimited
  | Maximum stacksize for task 120: unlimited
  | Maximum stacksize for task 121: unlimited
  | Maximum stacksize for task 122: unlimited
  | Maximum stacksize for task 123: unlimited
  | Maximum stacksize for task 124: unlimited
  | Maximum stacksize for task 125: unlimited
  | Maximum stacksize for task 126: unlimited
  | Maximum stacksize for task 127: unlimited
  | Maximum stacksize for task 128: unlimited
  | Maximum stacksize for task 129: unlimited
  | Maximum stacksize for task 130: unlimited
  | Maximum stacksize for task 131: unlimited
  | Maximum stacksize for task 132: unlimited
  | Maximum stacksize for task 133: unlimited
  | Maximum stacksize for task 134: unlimited
  | Maximum stacksize for task 135: unlimited
  | Maximum stacksize for task 136: unlimited
  | Maximum stacksize for task 137: unlimited
  | Maximum stacksize for task 138: unlimited
  | Maximum stacksize for task 139: unlimited
  | Maximum stacksize for task 140: unlimited
  | Maximum stacksize for task 141: unlimited
  | Maximum stacksize for task 142: unlimited
  | Maximum stacksize for task 143: unlimited
  | Maximum stacksize for task 144: unlimited
  | Maximum stacksize for task 145: unlimited
  | Maximum stacksize for task 146: unlimited
  | Maximum stacksize for task 147: unlimited
  | Maximum stacksize for task 148: unlimited
  | Maximum stacksize for task 149: unlimited
  | Maximum stacksize for task 150: unlimited
  | Maximum stacksize for task 151: unlimited
  | Maximum stacksize for task 152: unlimited
  | Maximum stacksize for task 153: unlimited
  | Maximum stacksize for task 154: unlimited
  | Maximum stacksize for task 155: unlimited
  | Maximum stacksize for task 156: unlimited
  | Maximum stacksize for task 157: unlimited
  | Maximum stacksize for task 158: unlimited
  | Maximum stacksize for task 159: unlimited
  | Current stacksize for task 0: unlimited
  | Current stacksize for task 1: unlimited
  | Current stacksize for task 2: unlimited
  | Current stacksize for task 3: unlimited
  | Current stacksize for task 4: unlimited
  | Current stacksize for task 5: unlimited
  | Current stacksize for task 6: unlimited
  | Current stacksize for task 7: unlimited
  | Current stacksize for task 8: unlimited
  | Current stacksize for task 9: unlimited
  | Current stacksize for task 10: unlimited
  | Current stacksize for task 11: unlimited
  | Current stacksize for task 12: unlimited
  | Current stacksize for task 13: unlimited
  | Current stacksize for task 14: unlimited
  | Current stacksize for task 15: unlimited
  | Current stacksize for task 16: unlimited
  | Current stacksize for task 17: unlimited
  | Current stacksize for task 18: unlimited
  | Current stacksize for task 19: unlimited
  | Current stacksize for task 20: unlimited
  | Current stacksize for task 21: unlimited
  | Current stacksize for task 22: unlimited
  | Current stacksize for task 23: unlimited
  | Current stacksize for task 24: unlimited
  | Current stacksize for task 25: unlimited
  | Current stacksize for task 26: unlimited
  | Current stacksize for task 27: unlimited
  | Current stacksize for task 28: unlimited
  | Current stacksize for task 29: unlimited
  | Current stacksize for task 30: unlimited
  | Current stacksize for task 31: unlimited
  | Current stacksize for task 32: unlimited
  | Current stacksize for task 33: unlimited
  | Current stacksize for task 34: unlimited
  | Current stacksize for task 35: unlimited
  | Current stacksize for task 36: unlimited
  | Current stacksize for task 37: unlimited
  | Current stacksize for task 38: unlimited
  | Current stacksize for task 39: unlimited
  | Current stacksize for task 40: unlimited
  | Current stacksize for task 41: unlimited
  | Current stacksize for task 42: unlimited
  | Current stacksize for task 43: unlimited
  | Current stacksize for task 44: unlimited
  | Current stacksize for task 45: unlimited
  | Current stacksize for task 46: unlimited
  | Current stacksize for task 47: unlimited
  | Current stacksize for task 48: unlimited
  | Current stacksize for task 49: unlimited
  | Current stacksize for task 50: unlimited
  | Current stacksize for task 51: unlimited
  | Current stacksize for task 52: unlimited
  | Current stacksize for task 53: unlimited
  | Current stacksize for task 54: unlimited
  | Current stacksize for task 55: unlimited
  | Current stacksize for task 56: unlimited
  | Current stacksize for task 57: unlimited
  | Current stacksize for task 58: unlimited
  | Current stacksize for task 59: unlimited
  | Current stacksize for task 60: unlimited
  | Current stacksize for task 61: unlimited
  | Current stacksize for task 62: unlimited
  | Current stacksize for task 63: unlimited
  | Current stacksize for task 64: unlimited
  | Current stacksize for task 65: unlimited
  | Current stacksize for task 66: unlimited
  | Current stacksize for task 67: unlimited
  | Current stacksize for task 68: unlimited
  | Current stacksize for task 69: unlimited
  | Current stacksize for task 70: unlimited
  | Current stacksize for task 71: unlimited
  | Current stacksize for task 72: unlimited
  | Current stacksize for task 73: unlimited
  | Current stacksize for task 74: unlimited
  | Current stacksize for task 75: unlimited
  | Current stacksize for task 76: unlimited
  | Current stacksize for task 77: unlimited
  | Current stacksize for task 78: unlimited
  | Current stacksize for task 79: unlimited
  | Current stacksize for task 80: unlimited
  | Current stacksize for task 81: unlimited
  | Current stacksize for task 82: unlimited
  | Current stacksize for task 83: unlimited
  | Current stacksize for task 84: unlimited
  | Current stacksize for task 85: unlimited
  | Current stacksize for task 86: unlimited
  | Current stacksize for task 87: unlimited
  | Current stacksize for task 88: unlimited
  | Current stacksize for task 89: unlimited
  | Current stacksize for task 90: unlimited
  | Current stacksize for task 91: unlimited
  | Current stacksize for task 92: unlimited
  | Current stacksize for task 93: unlimited
  | Current stacksize for task 94: unlimited
  | Current stacksize for task 95: unlimited
  | Current stacksize for task 96: unlimited
  | Current stacksize for task 97: unlimited
  | Current stacksize for task 98: unlimited
  | Current stacksize for task 99: unlimited
  | Current stacksize for task 100: unlimited
  | Current stacksize for task 101: unlimited
  | Current stacksize for task 102: unlimited
  | Current stacksize for task 103: unlimited
  | Current stacksize for task 104: unlimited
  | Current stacksize for task 105: unlimited
  | Current stacksize for task 106: unlimited
  | Current stacksize for task 107: unlimited
  | Current stacksize for task 108: unlimited
  | Current stacksize for task 109: unlimited
  | Current stacksize for task 110: unlimited
  | Current stacksize for task 111: unlimited
  | Current stacksize for task 112: unlimited
  | Current stacksize for task 113: unlimited
  | Current stacksize for task 114: unlimited
  | Current stacksize for task 115: unlimited
  | Current stacksize for task 116: unlimited
  | Current stacksize for task 117: unlimited
  | Current stacksize for task 118: unlimited
  | Current stacksize for task 119: unlimited
  | Current stacksize for task 120: unlimited
  | Current stacksize for task 121: unlimited
  | Current stacksize for task 122: unlimited
  | Current stacksize for task 123: unlimited
  | Current stacksize for task 124: unlimited
  | Current stacksize for task 125: unlimited
  | Current stacksize for task 126: unlimited
  | Current stacksize for task 127: unlimited
  | Current stacksize for task 128: unlimited
  | Current stacksize for task 129: unlimited
  | Current stacksize for task 130: unlimited
  | Current stacksize for task 131: unlimited
  | Current stacksize for task 132: unlimited
  | Current stacksize for task 133: unlimited
  | Current stacksize for task 134: unlimited
  | Current stacksize for task 135: unlimited
  | Current stacksize for task 136: unlimited
  | Current stacksize for task 137: unlimited
  | Current stacksize for task 138: unlimited
  | Current stacksize for task 139: unlimited
  | Current stacksize for task 140: unlimited
  | Current stacksize for task 141: unlimited
  | Current stacksize for task 142: unlimited
  | Current stacksize for task 143: unlimited
  | Current stacksize for task 144: unlimited
  | Current stacksize for task 145: unlimited
  | Current stacksize for task 146: unlimited
  | Current stacksize for task 147: unlimited
  | Current stacksize for task 148: unlimited
  | Current stacksize for task 149: unlimited
  | Current stacksize for task 150: unlimited
  | Current stacksize for task 151: unlimited
  | Current stacksize for task 152: unlimited
  | Current stacksize for task 153: unlimited
  | Current stacksize for task 154: unlimited
  | Current stacksize for task 155: unlimited
  | Current stacksize for task 156: unlimited
  | Current stacksize for task 157: unlimited
  | Current stacksize for task 158: unlimited
  | Current stacksize for task 159: unlimited
 
  Consistency checks for the contents of control.in are next.
 
  MPI_IN_PLACE appears to work with this MPI implementation.
  | Keeping use_mpi_in_place .true. (see manual).
  Target number of points in a grid batch is not set. Defaulting to  100
  Method for grid partitioning is not set. Defaulting to parallel hash+maxmin partitioning.
  Batch size limit is not set. Defaulting to    200
  By default, will store active basis functions for each batch.
  If in need of memory, prune_basis_once .false. can be used to disable this option.
  communication_type for Hartree potential was not specified.
  Defaulting to calc_hartree .
  Defaulting to Pulay charge density mixer.
  Pulay mixer: Number of relevant iterations not set.
  Defaulting to    8 iterations.
  Pulay mixer: Number of initial linear mixing iterations not set.
  Defaulting to    0 iterations.
  Work space size for distributed Hartree potential not set.
  Defaulting to   0.200000E+03 MB.
  Mixing parameter for charge density mixing has not been set.
  Using default: charge_mix_param =     0.0500.
  The mixing parameter will be adjusted in iteration number     2 of the first full s.c.f. cycle only.
  Algorithm-dependent basis array size parameters:
  | n_max_pulay                         :        8
  Maximum number of self-consistency iterations not provided.
  Presetting  1000 iterations.
  Presetting      1001 iterations before the initial mixing cycle
  is restarted anyway using the sc_init_iter criterion / keyword.
  Presetting a factor      1.000 between actual scf density residual
  and density convergence criterion sc_accuracy_rho below which sc_init_iter
  takes no effect.
 * No s.c.f. convergence criteria (sc_accuracy_*) were provided in control.in.
 * The run will proceed with a reasonable default guess, but please check whether.
 * the s.c.f. cycles seem to take too much or too little time.
  No maximum number of relaxation steps, defaulting to     1000
  Using explicit Hessian from geometry.in.
  No maximum energy tolerance for TRM/BFGS moves, defaulting to   0.100000E-02
  Maximum energy tolerance by which TRM/BFGS trajectory may increase over multiple steps:   0.300000E-02
  No harmonic length scale. Defaulting to   0.250000E-01 A.
  No trust radius initializer. Defaulting to   0.200000E+00 A.
  Forces evaluation will include force correction term due to incomplete self-consistency (default).
 * Notice: The s.c.f. convergence criterion sc_accuracy_rho was not provided.
 * We used to stop in this case, and ask the user to provide reasonable
 * scf convergence criteria. However, this led some users to employ criteria
 * that led to extremely long run times, e.g., for simple relaxation.
 * We now preset a default value for sc_accuracy_rho if it is not set.
 * You may still wish to check if this setting is too tight or too loose for your needs.
 * Based on n_atoms and forces and force-correction status, FHI-aims chose sc_accuracy_rho =  0.284722E-04 .
  Force calculation: scf convergence accuracy of forces not set.
  Defaulting to 'sc_accuracy_forces not_checked'.
  Handling of forces: Unphysical translation and rotation will be removed from forces.
  No accuracy limit for integral partition fn. given. Defaulting to  0.1000E-14.
  No threshold value for u(r) in integrations given. Defaulting to  0.1000E-05.
  No occupation type (smearing scheme) given. Defaulting to Gaussian broadening, width =  0.1000E-01 eV.
  The width will be adjusted in iteration number     2 of the first full s.c.f. cycle only.
  S.C.F. convergence parameters will be adjusted in iteration number     2 of the first full s.c.f. cycle only.
  No accuracy for occupation numbers given. Defaulting to  0.1000E-12.
  No threshold value for occupation numbers given. Defaulting to  0.0000E+00.
  No accuracy for fermi level given. Defaulting to  0.1000E-19.
  Maximum # of iterations to find E_F not set. Defaulting to  200.
  Preferred method for the eigenvalue solver ('KS_method') not specified in 'control.in'.
  Calling BLACS routine to test compilation state
  Since ScaLAPACK support is enabled, defaulting to ELPA (via ELSI).
  Will not use alltoall communication since running on < 1024 CPUs.
  Threshold for basis singularities not set.
  Default threshold for basis singularities:  0.1000E-04
  partition_type (choice of integration weights) for integrals was not specified.
  | Using a version of the partition function of Stratmann and coworkers ('stratmann_sparse').
  | At each grid point, the set of atoms used to build the partition table is smoothly restricted to
  | only those atoms whose free-atom density would be non-zero at that grid point.
  Partitioning for Hartree potential was not defined. Using partition_type for integrals.
  | Adjusted default value of keyword multip_moments_threshold to:       0.10000000E-11
  | This value may affect high angular momentum components of the Hartree potential in periodic systems.
  Angular momentum expansion for Kerker preconditioner not set explicitly.
  | Using default value of   0
  No explicit requirement for turning off preconditioner.
  | By default, it will be turned off when the charge convergence reaches
  | sc_accuracy_rho  =   0.284722E-04
  No special mixing parameter while Kerker preconditioner is on.
  Using default: charge_mix_param =     0.0500.
  No q(lm)/r^(l+1) cutoff set for long-range Hartree potential.
  | Using default value of  0.100000E-09 .
  | Verify using the multipole_threshold keyword.
  Defaulting to new monopole extrapolation.
  Density update method: automatic selection selected.
  Using density matrix based charge density update.
  Using density matrix based charge density update.
  Using packed matrix style: index .
  Geometry relaxation: A file "geometry.in.next_step" is written out by default after each step.
  | This file contains the geometry of the current relaxation step as well as
  | the current Hessian matrix needed to restart the relaxation algorithm.
  | If you do not want part or all of this information, use the keywords
  | "write_restart_geometry" or "hessian_to_restart_geometry" to switch the output off.
  Defaulting to use time-reversal symmetry for k-point grid.
  Charge integration errors on the 3D integration grid will be compensated
  by explicit normalization and distribution of residual charges.
  Use the "compensate_multipole_errors" flag to change this behaviour.
 
  Consistency checks for the contents of geometry.in are next.
 

  Range separation radius for Ewald summation (hartree_convergence_parameter):      5.00000000 bohr.
  Structure-dependent array size parameters: 
  | Maximum number of distinct radial functions  :       26
  | Maximum number of basis functions            :     3214
  | Number of Kohn-Sham states (occupied + empty):     1237
------------------------------------------------------------

------------------------------------------------------------
          Preparing all fixed parts of the calculation.
------------------------------------------------------------
  Determining machine precision:
    2.225073858507201E-308
  Setting up grids for atomic and cluster calculations.

  Creating wave function, potential, and density for free atoms.

  Species: S

  List of occupied orbitals and eigenvalues:
    n    l              occ      energy [Ha]    energy [eV]
    1    0           2.0000       -88.680731     -2413.1255
    2    0           2.0000        -7.781719      -211.7513
    3    0           2.0000        -0.633662       -17.2428
    2    1           6.0000        -5.751976      -156.5192
    3    1           4.0000        -0.257086        -6.9957


  Species: Mo

  List of occupied orbitals and eigenvalues:
    n    l              occ      energy [Ha]    energy [eV]
    1    0           2.0000      -745.344654    -20281.8600
    2    0           2.0000      -103.288246     -2810.6162
    3    0           2.0000       -17.516687      -476.6533
    4    0           2.0000        -2.358559       -64.1796
    5    0           1.0000        -0.145159        -3.9500
    2    1           6.0000       -92.308627     -2511.8455
    3    1           6.0000       -13.936005      -379.2180
    4    1           6.0000        -1.408138       -38.3174
    3    2          10.0000        -8.119011      -220.9295
    4    2           5.0000        -0.132984        -3.6187


  Adding cutoff potential to free-atom effective potential.
  Creating fixed part of basis set: Ionic, confined, hydrogenic.
 
  S                    ion:

  List of free ionic orbitals and eigenvalues:
    n    l      energy [Ha]    energy [eV]
    1    0       -89.703778     -2440.9640
    2    0        -8.775428      -238.7916
    3    0        -1.470343       -40.0101
    2    1        -6.747660      -183.6132
    3    1        -1.048627       -28.5346


  List of ionic basis orbitals and eigenvalues:
    n    l      energy [Ha]    energy [eV]    outer radius [A]
    3    2        -0.495605       -13.4861       5.386362
    3    0        -1.470336       -40.0099       3.967934

 
  S                    hydrogenic:
 
  List of hydrogenic basis orbitals: 
    n    l      effective z      eigenvalue [eV]  inner max. [A]     outer max. [A]     outer radius [A]   
    2    1         1.800000       -11.0118           1.168531           1.168531           5.452614
    4    3         7.000000       -41.6672           1.212182           1.212182           5.066981
    4    2         6.200000       -32.6848           0.582121           1.814567           5.386362
    5    4        10.800000       -63.4785           1.227092           1.227092           4.766538
 
 
  Mo                   ion:

  List of free ionic orbitals and eigenvalues:
    n    l      energy [Ha]    energy [eV]
    1    0      -746.048685    -20301.0176
    2    0      -103.980912     -2829.4646
    3    0       -18.206601      -495.4268
    4    0        -3.040545       -82.7374
    2    1       -93.001013     -2530.6863
    3    1       -14.625827      -397.9890
    4    1        -2.084855       -56.7318
    3    2        -8.808854      -239.7011
    4    2        -0.765435       -20.8285


  List of ionic basis orbitals and eigenvalues:
    n    l      energy [Ha]    energy [eV]    outer radius [A]
    5    1        -0.465587       -12.6693       5.456393
    5    0        -0.650331       -17.6964       5.390095

 
  Mo                   hydrogenic:
 
  List of hydrogenic basis orbitals: 
    n    l      effective z      eigenvalue [eV]  inner max. [A]     outer max. [A]     outer radius [A]   
    4    3         8.400000       -60.0010           1.009788           1.009788           4.487018
    3    2         2.800000       -11.8048           1.687401           1.687401           5.456393
    5    4        12.000000       -78.3687           1.100005           1.100005           4.432498
 
  Creating atomic-like basis functions for current effective potential.

  Species S                   :

  List of atomic basis orbitals and eigenvalues:
    n    l      energy [Ha]    energy [eV]    outer radius [A]
    1    0       -88.680731     -2413.1255       0.682391
    2    0        -7.781719      -211.7513       2.289014
    3    0        -0.633662       -17.2428       5.256262
    2    1        -5.751976      -156.5192       2.555240
    3    1        -0.257086        -6.9957       5.386362


  Species Mo                  :

  List of atomic basis orbitals and eigenvalues:
    n    l      energy [Ha]    energy [eV]    outer radius [A]
    1    0      -745.344654    -20281.8600       0.247552
    2    0      -103.288246     -2810.6162       0.682864
    3    0       -17.516687      -476.6533       1.626637
    4    0        -2.358559       -64.1796       4.220963
    5    0        -0.145159        -3.9500       5.456393
    2    1       -92.308627     -2511.8455       0.699766
    3    1       -13.936005      -379.2180       1.793761
    4    1        -1.408138       -38.3174       4.828511
    3    2        -8.119011      -220.9295       2.181285
    4    2        -0.132984        -3.6187       5.390095

  Assembling full basis from fixed parts.
  | Species S :   atomic orbital   1 s accepted.
  | Species S :   atomic orbital   2 s accepted.
  | Species S :    ionic orbital   3 s accepted.
  | Species S :   atomic orbital   3 s accepted.
  | Species S :   atomic orbital   2 p accepted.
  | Species S :   atomic orbital   3 p accepted.
  | Species S :    hydro orbital   2 p accepted.
  | Species S :    ionic orbital   3 d accepted.
  | Species S :    hydro orbital   4 d accepted.
  | Species S :    hydro orbital   4 f accepted.
  | Species S :    hydro orbital   5 g accepted.
  | Species Mo :   atomic orbital   1 s accepted.
  | Species Mo :   atomic orbital   2 s accepted.
  | Species Mo :   atomic orbital   3 s accepted.
  | Species Mo :   atomic orbital   4 s accepted.
  | Species Mo :    ionic orbital   5 s accepted.
  | Species Mo :   atomic orbital   5 s accepted.
  | Species Mo :   atomic orbital   2 p accepted.
  | Species Mo :   atomic orbital   3 p accepted.
  | Species Mo :   atomic orbital   4 p accepted.
  | Species Mo :    ionic orbital   5 p accepted.
  | Species Mo :   atomic orbital   3 d accepted.
  | Species Mo :   atomic orbital   4 d accepted.
  | Species Mo :    hydro orbital   3 d accepted.
  | Species Mo :    hydro orbital   4 f accepted.
  | Species Mo :    hydro orbital   5 g accepted.
 
  Basis size parameters after reduction:
  | Total number of radial functions:       26
  | Total number of basis functions :     3214
 
  Per-task memory consumption for arrays in subroutine allocate_ext:
  |           9.632432MB.
  Testing on-site integration grid accuracy.
  |  Species  Function  <phi|h_atom|phi> (log., in eV)  <phi|h_atom|phi> (rad., in eV)
           1        1              -2413.1254568977              -2413.1254096663
           1        2               -211.7513411281               -211.7513404762
           1        3                -16.9725280787                -16.9725279206
           1        4                  7.6024436204                  7.6024549059
           1        5               -156.5192206929               -156.5192205451
           1        6                 -6.9959757887                 -6.9959777655
           1        7                  6.8896462808                  6.8895564741
           1        8                  6.0214250550                  6.0214220200
           1        9                 19.6206468977                 19.6206494558
           1       10                 24.7008710786                 24.7008710738
           1       11                 47.5292252001                 47.5292260486
           2       12             -20281.8599610543             -20281.8584300616
           2       13              -2810.6161812280              -2810.6161551921
           2       14               -476.6533163555               -476.6533136395
           2       15                -64.1796433667                -64.1796426456
           2       16                 -3.3691762756                 -3.3691802887
           2       17                  4.4704608512                  4.4699102345
           2       18              -2511.8455406047              -2511.8455385741
           2       19               -379.2179896350               -379.2179882338
           2       20                -38.3173891619                -38.3173886619
           2       21                  0.2493245095                  0.2492931069
           2       22               -220.9295301098               -220.9295297081
           2       23                 -3.6195697699                 -3.6195754704
           2       24                  7.1428000922                  7.1426882355
           2       25                 23.3975871087                 23.3975871819
           2       26                 50.2449608881                 50.2449608586

  Preparing densities etc. for the partition functions (integrals / Hartree potential).
 Frequency grid relative error: 0.12418110983958286E-009                        
   
 Will use parallel mode: atoms     
 BLACS block size: 15                                                

  Preparations completed.
  max(cpu_time)          :      0.544 s.
  Wall clock time (cpu1) :      0.522 s.
------------------------------------------------------------

------------------------------------------------------------
          Begin self-consistency loop: Initialization.

          Date     :  20211215, Time     :  153353.145
------------------------------------------------------------

  Initializing index lists of integration centers etc. from given atomic structure:
  Mapping all atomic coordinates to central unit cell.

  Initializing the k-points
  Using symmetry for reducing the k-points
  | k-points reduced from:        4 to        4
  | Number of k-points                             :         4
  The eigenvectors in the calculations are REAL.
  | Number of basis functions in the Hamiltonian integrals :      8650
  | Number of basis functions in a single unit cell        :      3214
  | Number of centers in hartree potential         :       797
  | Number of centers in hartree multipole         :       499
  | Number of centers in electron density summation:       433
  | Number of centers in basis integrals           :       451
  | Number of centers in integrals                 :       271
  | Number of centers in hamiltonian               :       433
  | Consuming          0 KiB for k_phase.
  | Number of super-cells (origin) [n_cells]                     :          75
  | Number of super-cells (after PM_index) [n_cells]             :          10
  | Number of super-cells in hamiltonian [n_cells_in_hamiltonian]:          10
  | Size of matrix packed + index [n_hamiltonian_matrix_size] :     6346466

  Initializing relaxation algorithms.
  Finished initialization of distributed Hessian storage.
  | Global dimension:       228
  | BLACS block size:         2
  | Number of workers:      114

  Reading estimated Hessian matrix from file 'hessian.aims'
  | Estimated reciprocal-space cutoff momentum G_max:         1.90186217 bohr^-1 .
  | Reciprocal lattice points for long-range Hartree potential:   16626
  Using simple linear distribution as default method for k-point parallelism.
  * Using 160 tasks for Scalapack Eigenvalue solver.
  Detailed listing of tasks and assigned k-points:
   Task     0 k-point     1 on co3611
   Task     1 k-point     1 on co3611
   Task     2 k-point     1 on co3611
   Task     3 k-point     1 on co3611
   Task     4 k-point     1 on co3611
   Task     5 k-point     1 on co3611
   Task     6 k-point     1 on co3611
   Task     7 k-point     1 on co3611
   Task     8 k-point     1 on co3611
   Task     9 k-point     1 on co3611
   Task    10 k-point     1 on co3611
   Task    11 k-point     1 on co3611
   Task    12 k-point     1 on co3611
   Task    13 k-point     1 on co3611
   Task    14 k-point     1 on co3611
   Task    15 k-point     1 on co3611
   Task    16 k-point     1 on co3611
   Task    17 k-point     1 on co3611
   Task    18 k-point     1 on co3611
   Task    19 k-point     1 on co3611
   Task    20 k-point     1 on co3611
   Task    21 k-point     1 on co3611
   Task    22 k-point     1 on co3611
   Task    23 k-point     1 on co3611
   Task    24 k-point     1 on co3611
   Task    25 k-point     1 on co3611
   Task    26 k-point     1 on co3611
   Task    27 k-point     1 on co3611
   Task    28 k-point     1 on co3611
   Task    29 k-point     1 on co3611
   Task    30 k-point     1 on co3611
   Task    31 k-point     1 on co3611
   Task    32 k-point     1 on co3611
   Task    33 k-point     1 on co3611
   Task    34 k-point     1 on co3611
   Task    35 k-point     1 on co3611
   Task    36 k-point     1 on co3611
   Task    37 k-point     1 on co3611
   Task    38 k-point     1 on co3611
   Task    39 k-point     1 on co3611
   Task    40 k-point     2 on co3613
   Task    41 k-point     2 on co3613
   Task    42 k-point     2 on co3613
   Task    43 k-point     2 on co3613
   Task    44 k-point     2 on co3613
   Task    45 k-point     2 on co3613
   Task    46 k-point     2 on co3613
   Task    47 k-point     2 on co3613
   Task    48 k-point     2 on co3613
   Task    49 k-point     2 on co3613
   Task    50 k-point     2 on co3613
   Task    51 k-point     2 on co3613
   Task    52 k-point     2 on co3613
   Task    53 k-point     2 on co3613
   Task    54 k-point     2 on co3613
   Task    55 k-point     2 on co3613
   Task    56 k-point     2 on co3613
   Task    57 k-point     2 on co3613
   Task    58 k-point     2 on co3613
   Task    59 k-point     2 on co3613
   Task    60 k-point     2 on co3613
   Task    61 k-point     2 on co3613
   Task    62 k-point     2 on co3613
   Task    63 k-point     2 on co3613
   Task    64 k-point     2 on co3613
   Task    65 k-point     2 on co3613
   Task    66 k-point     2 on co3613
   Task    67 k-point     2 on co3613
   Task    68 k-point     2 on co3613
   Task    69 k-point     2 on co3613
   Task    70 k-point     2 on co3613
   Task    71 k-point     2 on co3613
   Task    72 k-point     2 on co3613
   Task    73 k-point     2 on co3613
   Task    74 k-point     2 on co3613
   Task    75 k-point     2 on co3613
   Task    76 k-point     2 on co3613
   Task    77 k-point     2 on co3613
   Task    78 k-point     2 on co3613
   Task    79 k-point     2 on co3613
   Task    80 k-point     3 on co3615
   Task    81 k-point     3 on co3615
   Task    82 k-point     3 on co3615
   Task    83 k-point     3 on co3615
   Task    84 k-point     3 on co3615
   Task    85 k-point     3 on co3615
   Task    86 k-point     3 on co3615
   Task    87 k-point     3 on co3615
   Task    88 k-point     3 on co3615
   Task    89 k-point     3 on co3615
   Task    90 k-point     3 on co3615
   Task    91 k-point     3 on co3615
   Task    92 k-point     3 on co3615
   Task    93 k-point     3 on co3615
   Task    94 k-point     3 on co3615
   Task    95 k-point     3 on co3615
   Task    96 k-point     3 on co3615
   Task    97 k-point     3 on co3615
   Task    98 k-point     3 on co3615
   Task    99 k-point     3 on co3615
   Task   100 k-point     3 on co3615
   Task   101 k-point     3 on co3615
   Task   102 k-point     3 on co3615
   Task   103 k-point     3 on co3615
   Task   104 k-point     3 on co3615
   Task   105 k-point     3 on co3615
   Task   106 k-point     3 on co3615
   Task   107 k-point     3 on co3615
   Task   108 k-point     3 on co3615
   Task   109 k-point     3 on co3615
   Task   110 k-point     3 on co3615
   Task   111 k-point     3 on co3615
   Task   112 k-point     3 on co3615
   Task   113 k-point     3 on co3615
   Task   114 k-point     3 on co3615
[...]
  ------------------------------------ 
  LDA X and C from self-consistent density 
  X Energy LDA        :      -4087.577649679 Ha        -111228.647099013 eV
  C Energy LDA        :       -161.496212024 Ha          -4394.535520681 eV
  ------------------------------------ 
  End decomposition of the XC Energy 
  ------------------------------------ 

------------------------------------------------------------
  Relaxation / MD: End force evaluation.       :  max(cpu_time)    wall_clock(cpu1)
  | Time for this force evaluation             :      113.005 s         113.083 s

------------------------------------------------------------
  Geometry optimization: Attempting to predict improved coordinates.

  Removing unitary transformations (pure translations, rotations) from forces on atoms.
  Atomic forces before filtering:
  | Net force on center of mass :  -0.217781E-19  0.187292E-17  0.413784E-18 eV/A
  Atomic forces after filtering:
  | Net force on center of mass :  -0.217781E-19  0.435562E-18  0.413784E-18 eV/A
  Net remaining forces (excluding translations, rotations) in present geometry:
  || Forces on atoms   || =   0.852066E-03 eV/A.
  Maximum force component is  0.852066E-03 eV/A.
  Present geometry is converged.

------------------------------------------------------------
  Final atomic structure:
                         x [A]             y [A]             z [A]
  lattice_vector        15.76960250        0.00000000        0.00000000
  lattice_vector        -7.88732950       13.65525595        0.00000000
  lattice_vector         0.00000000        0.00000000       99.30554027

            atom         1.60785794        0.96872393        3.07845005  Mo
            atom         0.02995302        1.87977296        4.64541618  S
            atom         0.03182738        1.87581767        1.50666750  S
            atom         0.03276146        3.69721109        3.07275129  Mo
            atom        -1.54625090        4.61065493        4.64133781  S
            atom        -1.54575623        4.61092993        1.50517471  S
            atom        -1.54836395        6.43464281        3.07273826  Mo
            atom        -3.12416144        7.34047596        4.64542196  S
            atom        -3.12664714        7.34406929        1.50662759  S
            atom        -3.12480449        9.16231939        3.07843079  Mo
            atom        -4.70102297       10.07230103        4.64901423  S
            atom        -4.70104061       10.07413247        1.51029315  S
            atom        -4.70149749       11.89358668        3.08042365  Mo
            atom        -6.27897647       12.80413471        4.64906838  S
            atom        -6.27740329       12.80321695        1.51025698  S
            atom         4.76286301        0.96873830        3.07845004  Mo
            atom         3.18525789        1.88429328        4.64511899  S
            atom         3.18526212        1.87722776        1.50937532  S
            atom         3.18487564        3.70343195        3.07234167  Mo
            atom         1.60425781        4.61338695        4.64099169  S
            atom         1.60562612        4.59626239        1.49340059  S
            atom         1.58100732        6.41623760        3.05879688  Mo
            atom         0.03087258        7.33736195        4.64098444  S
            atom         0.01673379        7.34709767        1.49336721  S
            atom         0.03253058        9.16099892        3.07231924  Mo
            atom        -1.54311617       10.07049810        4.64507960  S
            atom        -1.54923066       10.07403454        1.50937085  S
            atom        -1.54777532       11.89436464        3.07843696  Mo
            atom        -3.12413574       12.80410353        4.64901700  S
            atom        -3.12572477       12.80319643        1.51029268  S
            atom         7.91671003        0.96961480        3.07564163  Mo
            atom         6.34061413        1.87977593        4.64543496  S
            atom         6.33873843        1.87584804        1.50666504  S
            atom         6.33695218        3.69722914        3.07277475  Mo
            atom         4.76526711        4.61337581        4.64101219  S
            atom         4.76393605        4.59627602        1.49340143  S
            atom         4.78769059        6.41624112        3.05881346  Mo
            atom         3.18424249        7.34171468        4.58985613  S
            atom         3.18420086        7.34160435        6.52958446  S
            atom         3.18427101        7.34174734        1.51877951  S
            atom         3.18383745        9.19293643        3.05883009  Mo
            atom         1.61085828       10.07452901        4.64099701  S
            atom         1.59538377       10.08191671        1.49339893  S
            atom         1.60271274       11.89356297        3.07276461  Mo
            atom         0.03014769       12.80501025        4.64543731  S
            atom         0.02580839       12.80535836        1.50664210  S
            atom        11.07017125        0.96957848        3.07338360  Mo
            atom         9.49416823        1.88026623        4.64326127  S
            atom         9.49266350        1.87940086        1.50494636  S
            atom         9.49290370        3.70028911        3.07338553  Mo
            atom         7.91577852        4.61063494        4.64136607  S
            atom         7.91527518        4.61092866        1.50520370  S
            atom         7.91706276        6.43463691        3.07277820  Mo
            atom         6.33763554        7.33735228        4.64102756  S
            atom         6.35178566        7.34707460        1.49339771  S
            atom         6.33514636        9.16096752        3.07235980  Mo
            atom         4.75662205       10.07452188        4.64101871  S
            atom         4.77212654       10.08191493        1.49342968  S
            atom         4.76397587       11.89357652        3.07278119  Mo
            atom         3.18322829       12.80400993        4.64137003  S
            atom         3.18324038       12.80343054        1.50519245  S
            atom        14.22361134        0.96962382        3.07564411  Mo
            atom        12.64596674        1.88027712        4.64325951  S
            atom        12.64746988        1.87939728        1.50493794  S
            atom        12.64642117        3.70028904        3.07337124  Mo
            atom        11.06957004        4.60949799        4.64325231  S
            atom        11.06955621        4.61123091        1.50494015  S
            atom        11.06916047        6.43093453        3.07563321  Mo
            atom         9.49271103        7.34047078        4.64543291  S
            atom         9.49516250        7.34406499        1.50666520  S
            atom         9.49249066        9.16235827        3.07845321  Mo
            atom         7.91061319       10.07050524        4.64512588  S
            atom         7.91671796       10.07403345        1.50938979  S
            atom         7.91449419       11.89435122        3.07845945  Mo
            atom         6.33637490       12.80501675        4.64543211  S
            atom         6.34072072       12.80535202        1.50667970  S

  Fractional coordinates:
                         L1                L2                L3
       atom_frac         0.13744143        0.07094147        0.03099978  Mo
       atom_frac         0.07075113        0.13765930        0.04677902  S
       atom_frac         0.07072512        0.13736965        0.01517204  S
       atom_frac         0.13749777        0.27075370        0.03094240  Mo
       atom_frac         0.07082496        0.33764691        0.04673795  S
       atom_frac         0.07086640        0.33766705        0.01515701  S
       atom_frac         0.13749941        0.47122096        0.03094226  Mo
       atom_frac         0.07075171        0.53755682        0.04677908  S
       atom_frac         0.07072570        0.53781997        0.01517164  S
       atom_frac         0.13744083        0.67097383        0.03099959  Mo
       atom_frac         0.07081838        0.73761349        0.04681526  S
       atom_frac         0.07088434        0.73774761        0.01520855  S
       atom_frac         0.13749775        0.87098966        0.03101966  Mo
       atom_frac         0.07081612        0.93767080        0.04681580  S
       atom_frac         0.07088226        0.93760359        0.01520818  S
       atom_frac         0.33751073        0.07094252        0.03099978  Mo
       atom_frac         0.27100449        0.13799033        0.04677603  S
       atom_frac         0.27074597        0.13747291        0.01519931  S
       atom_frac         0.33761108        0.27120927        0.03093827  Mo
       atom_frac         0.27070868        0.33784698        0.04673447  S
       atom_frac         0.27016821        0.33659291        0.01503844  S
       atom_frac         0.33526853        0.46987311        0.03080188  Mo
       atom_frac         0.27070826        0.53732877        0.04673440  S
       atom_frac         0.27016827        0.53804174        0.01503811  S
       atom_frac         0.33760899        0.67087713        0.03093804  Mo
       atom_frac         0.27100513        0.73748146        0.04677563  S
       atom_frac         0.27074692        0.73774044        0.01519926  S
       atom_frac         0.33751367        0.87104663        0.03099965  Mo
       atom_frac         0.27087333        0.93766851        0.04681528  S
       atom_frac         0.27073934        0.93760208        0.01520854  S
       atom_frac         0.53753818        0.07100671        0.03097150  Mo
       atom_frac         0.47093008        0.13765952        0.04677921  S
       atom_frac         0.47066726        0.13737187        0.01517201  S
       atom_frac         0.53726695        0.27075502        0.03094263  Mo
       atom_frac         0.47115779        0.33784616        0.04673468  S
       atom_frac         0.47044706        0.33659391        0.01503845  S
       atom_frac         0.53861451        0.46987337        0.03080204  Mo
       atom_frac         0.47083278        0.53764753        0.04621954  S
       atom_frac         0.47082610        0.53763945        0.06575247  S
       atom_frac         0.47083578        0.53764992        0.01529401  S
       atom_frac         0.53861305        0.67321597        0.03080221  Mo
       atom_frac         0.47115619        0.73777665        0.04673452  S
       atom_frac         0.47044550        0.73831767        0.01503843  S
       atom_frac         0.53726665        0.87098792        0.03094253  Mo
       atom_frac         0.47092956        0.93773491        0.04677924  S
       atom_frac         0.47066714        0.93776041        0.01517178  S
       atom_frac         0.73750772        0.07100405        0.03094876  Mo
       atom_frac         0.67092480        0.13769542        0.04675732  S
       atom_frac         0.67079768        0.13763205        0.01515471  S
       atom_frac         0.73750782        0.27097911        0.03094878  Mo
       atom_frac         0.67084122        0.33764544        0.04673824  S
       atom_frac         0.67082006        0.33766695        0.01515730  S
       atom_frac         0.73773162        0.47122053        0.03094267  Mo
       atom_frac         0.67063955        0.53732807        0.04673483  S
       atom_frac         0.67189295        0.53804005        0.01503841  S
       atom_frac         0.73727649        0.67087483        0.03093845  Mo
       atom_frac         0.67063868        0.73777613        0.04673474  S
       atom_frac         0.67189266        0.73831754        0.01503873  S
       atom_frac         0.73773276        0.87098891        0.03094270  Mo
       atom_frac         0.67083966        0.93766166        0.04673828  S
       atom_frac         0.67081920        0.93761923        0.01515719  S
       atom_frac         0.93747892        0.07100737        0.03097153  Mo
       atom_frac         0.87079064        0.13769622        0.04675731  S
       atom_frac         0.87085373        0.13763179        0.01515462  S
       atom_frac         0.93748226        0.27097911        0.03094864  Mo
       atom_frac         0.87079140        0.33756218        0.04675723  S
       atom_frac         0.87085399        0.33768909        0.01515464  S
       atom_frac         0.93748042        0.47094940        0.03097142  Mo
       atom_frac         0.87082701        0.53755644        0.04677919  S
       atom_frac         0.87111411        0.53781965        0.01517202  S
       atom_frac         0.93754455        0.67097668        0.03099981  Mo
       atom_frac         0.87049604        0.73748198        0.04677610  S
       atom_frac         0.87101240        0.73774036        0.01519945  S
       atom_frac         0.93754539        0.87104564        0.03099988  Mo
       atom_frac         0.87082746        0.93773539        0.04677918  S
       atom_frac         0.87111532        0.93775994        0.01517216  S
------------------------------------------------------------

------------------------------------------------------------------------------
  Final output of selected total energy values:

  The following output summarizes some interesting total energy values
  at the end of a run (AFTER all relaxation, molecular dynamics, etc.).

  | Total energy of the DFT / Hartree-Fock s.c.f. calculation      :       -3335811.070248652 eV
  | Final zero-broadening corrected energy (caution - metals only) :       -3335811.070248652 eV
  | For reference only, the value of 1 Hartree used in FHI-aims is :             27.211384500 eV
  | For reference only, the overall average (free atom contribution
  | + realspace contribution) of the electrostatic potential after
  | s.c.f. convergence is                                          :             -1.146676259 eV

  Before relying on these values, please be sure to understand exactly which
  total energy value is referred to by a given number. Different objects may
  all carry the same name 'total energy'. Definitions:

  Total energy of the DFT / Hartree-Fock s.c.f. calculation:
  | Note that this energy does not include ANY quantities calculated after the
  | s.c.f. cycle, in particular not ANY RPA, MP2, etc. many-body perturbation terms.

  Final zero-broadening corrected energy:
  | For metallic systems only, a broadening of the occupation numbers at the Fermi
  | level can be extrapolated back to zero broadening by an electron-gas inspired
  | formula. For all systems that are not real metals, this value can be
  | meaningless and should be avoided.

------------------------------------------------------------------------------
  Methods described in the following list of references were used in this FHI-aims run.
  If you publish the results, please make sure to cite these reference if they apply.
  FHI-aims is an academic code, and for our developers (often, Ph.D. students
  and postdocs), scientific credit in the community is essential.
  Thank you for helping us!

  For any use of FHI-aims, please cite:

    Volker Blum, Ralf Gehrke, Felix Hanke, Paula Havu, Ville Havu,
    Xinguo Ren, Karsten Reuter, and Matthias Scheffler
    'Ab initio molecular simulations with numeric atom-centered orbitals'
    Computer Physics Communications 180, 2175-2196 (2009)
    http://dx.doi.org/10.1016/j.cpc.2009.06.022


  The provided symmetry information was generated with SPGlib:

    Atsushi Togo, Yusuke Seto, Dimitar Pashov
    SPGlib 1.7.3 obtained from http://spglib.sourceforge.net
    Copyright (C) 2008 Atsushi Togo


  The ELSI infrastructure was used in your run to solve the Kohn-Sham electronic structure.
  Please check out http://elsi-interchange.org to learn more.
  If scalability is important for your project, please acknowledge ELSI by citing:

    V. W-z. Yu, F. Corsetti, A. Garcia, W. P. Huhn, M. Jacquelin, W. Jia,
    B. Lange, L. Lin, J. Lu, W. Mi, A. Seifitokaldani, A. Vazquez-Mayagoitia,
    C. Yang, H. Yang, and V. Blum
    'ELSI: A unified software interface for Kohn-Sham electronic structure solvers'
    Computer Physics Communications 222, 267-285 (2018).
    http://dx.doi.org/10.1016/j.cpc.2017.09.007


  For the real-space grid partitioning and parallelization used in this calculation, please cite:

    Ville Havu, Volker Blum, Paula Havu, and Matthias Scheffler,
    'Efficient O(N) integration for all-electron electronic structure calculation'
    'using numerically tabulated basis functions'
    Journal of Computational Physics 228, 8367-8379 (2009).
    http://dx.doi.org/10.1016/j.jcp.2009.08.008

  Of course, there are many other important community references, e.g., those cited in the
  above references. Our list is limited to references that describe implementations in the
  FHI-aims code. The reason is purely practical (length of this list) - please credit others as well.

------------------------------------------------------------
          Leaving FHI-aims.
          Date     :  20211215, Time     :  155626.986

          Computational steps:
          | Number of self-consistency cycles          :           90
          | Number of SCF (re)initializations          :            9
          | Number of relaxation steps                 :            8

          Detailed time accounting                     :  max(cpu_time)    wall_clock(cpu1)
          | Total time                                 :     1353.293 s        1355.267 s
          | Preparation time                           :        0.544 s           0.522 s
          | Boundary condition initalization           :        9.942 s           9.933 s
          | Grid partitioning                          :       10.402 s          10.366 s
          | Preloading free-atom quantities on grid    :        5.284 s           5.301 s
          | Free-atom superposition energy             :        0.619 s           0.619 s
          | Total time for integrations                :      218.872 s         218.975 s
          | Total time for solution of K.-S. equations :       46.944 s          46.977 s
          | Total time for EV reorthonormalization     :        1.041 s           1.038 s
          | Total time for density & force components  :      735.980 s         736.259 s
          | Total time for mixing & preconditioning    :       40.279 s          40.272 s
          | Total time for Hartree multipole update    :        1.062 s           1.063 s
          | Total time for Hartree multipole sum       :      188.683 s         188.743 s
          | Total time for total energy evaluation     :        0.095 s           0.057 s
          | Total time NSC force correction            :       29.665 s          29.681 s
          | Total time for scaled ZORA corrections     :        0.000 s           0.000 s
          | Total time for vdW correction              :       51.411 s          51.451 s

          Partial memory accounting:
          | Residual value for overall tracked memory usage across tasks:     0.000000 MB (should be 0.000000 MB)
          | Peak values for overall tracked memory usage:
          |   Minimum:      171.600 MB (on task 114 after allocating temp_ham_ovlp)
          |   Maximum:      172.052 MB (on task   0 after allocating temp_ham_ovlp)
          |   Average:      171.670 MB
          | Largest tracked array allocation:
          |   Minimum:       48.425 MB (hamiltonian on task   0)
          |   Maximum:       48.425 MB (hamiltonian on task   0)
          |   Average:       48.425 MB
          Note:  These values currently only include a subset of arrays which are explicitly tracked.
          The "true" memory usage will be greater.

          Have a nice day.
------------------------------------------------------------
