------------------------------------------------------------
          Invoking FHI-aims ...

          When using FHI-aims, please cite the following reference:

            Volker Blum, Ralf Gehrke, Felix Hanke, Paula Havu,
            Ville Havu, Xinguo Ren, Karsten Reuter, and Matthias Scheffler,
            'Ab Initio Molecular Simulations with Numeric Atom-Centered Orbitals',
            Computer Physics Communications 180, 2175-2196 (2009)

          In addition, many other developments in FHI-aims are likely important for
          your particular application. A partial list of references is given at the end of
          this file. Thank you for giving credit to the authors of these developments.

          For any questions about FHI-aims, please visit our slack channel at

            https://fhi-aims.slack.com

          and our main development and support site at

            https://aims-git.rz-berlin.mpg.de .

          The latter site, in particular, has a wiki to collect information, as well
          as an issue tracker to log discussions, suggest improvements, and report issues
          or bugs. https://aims-git.rz-berlin.mpg.de is also the main development site
          of the project and all new and updated code versions can be obtained there.
          Please send an email to aims-coordinators@fhi-berlin.mpg.de and we will add
          you to these sites. They are for you and everyone is welcome there.

------------------------------------------------------------



  Date     :  20220209, Time     :  124126.481
  Time zero on CPU 1             :   0.426323000000000E+00  s.
  Internal wall clock time zero  :           413642486.481  s.

  FHI-aims created a unique identifier for this run for later identification
  aims_uuid : 7CDA01C6-B7A9-4AFE-A551-A02111945B48

  Build configuration of the current instance of FHI-aims
  -------------------------------------------------------
  FHI-aims version      : 220117
  Commit number         : 0c0e6afe2
  CMake host system     : Linux-5.3.18-24.99-default
  CMake version         : 3.22.0
  Fortran compiler      : /mpcdf/soft/SLE_15/packages/x86_64/intel_oneapi/2021.4/mpi/2021.4.0/bin/mpiifort (Intel) version 2021.4.0.20210910
  Fortran compiler flags: -O3 -ip -fp-model precise
  C compiler            : /mpcdf/soft/SLE_15/packages/x86_64/intel/2021.4.0/bin/icc (Intel) version 2021.4.0.20210910
  C compiler flags      : -O3 -ip -fp-model precise
  C++ compiler          : /mpcdf/soft/SLE_15/packages/x86_64/intel/2021.4.0/bin/icpc (Intel) version 2021.4.0.20210910
  C++ compiler flags    : -O3 -ip -fp-model precise
  Using MPI
  Using ScaLAPACK
  Using LibXC
  Using i-PI
  Using RLSY
  Linking against: /mpcdf/soft/SLE_15/packages/x86_64/intel_oneapi/2021.4/mkl/latest/lib/intel64/libmkl_intel_lp64.so
                   /mpcdf/soft/SLE_15/packages/x86_64/intel_oneapi/2021.4/mkl/latest/lib/intel64/libmkl_sequential.so
                   /mpcdf/soft/SLE_15/packages/x86_64/intel_oneapi/2021.4/mkl/latest/lib/intel64/libmkl_core.so
                   /mpcdf/soft/SLE_15/packages/x86_64/intel_oneapi/2021.4/mkl/latest/lib/intel64/libmkl_blacs_intelmpi_lp64.so
                   /mpcdf/soft/SLE_15/packages/x86_64/intel_oneapi/2021.4/mkl/latest/lib/intel64/libmkl_scalapack_lp64.so

  Using      288 parallel tasks.
  Task        0 on host ravg1158 reporting.
  Task        1 on host ravg1158 reporting.
  Task        2 on host ravg1158 reporting.
  Task        3 on host ravg1158 reporting.
  Task        4 on host ravg1158 reporting.
  Task        5 on host ravg1158 reporting.
  Task        6 on host ravg1158 reporting.
  Task        7 on host ravg1158 reporting.
  Task        8 on host ravg1158 reporting.
  Task        9 on host ravg1158 reporting.
  Task       10 on host ravg1158 reporting.
  Task       11 on host ravg1158 reporting.
  Task       12 on host ravg1158 reporting.
  Task       13 on host ravg1158 reporting.
  Task       14 on host ravg1158 reporting.
  Task       15 on host ravg1158 reporting.
  Task       16 on host ravg1158 reporting.
  Task       17 on host ravg1158 reporting.
  Task       18 on host ravg1158 reporting.
  Task       19 on host ravg1158 reporting.
  Task       20 on host ravg1158 reporting.
  Task       21 on host ravg1158 reporting.
  Task       22 on host ravg1158 reporting.
  Task       23 on host ravg1158 reporting.
  Task       24 on host ravg1158 reporting.
  Task       25 on host ravg1158 reporting.
  Task       26 on host ravg1158 reporting.
  Task       27 on host ravg1158 reporting.
  Task       28 on host ravg1158 reporting.
  Task       29 on host ravg1158 reporting.
  Task       30 on host ravg1158 reporting.
  Task       31 on host ravg1158 reporting.
  Task       32 on host ravg1158 reporting.
  Task       33 on host ravg1158 reporting.
  Task       34 on host ravg1158 reporting.
  Task       35 on host ravg1158 reporting.
  Task       36 on host ravg1158 reporting.
  Task       37 on host ravg1158 reporting.
  Task       38 on host ravg1158 reporting.
  Task       39 on host ravg1158 reporting.
  Task       40 on host ravg1158 reporting.
  Task       41 on host ravg1158 reporting.
  Task       42 on host ravg1158 reporting.
  Task       43 on host ravg1158 reporting.
  Task       44 on host ravg1158 reporting.
  Task       45 on host ravg1158 reporting.
  Task       46 on host ravg1158 reporting.
  Task       47 on host ravg1158 reporting.
  Task       48 on host ravg1158 reporting.
  Task       49 on host ravg1158 reporting.
  Task       50 on host ravg1158 reporting.
  Task       51 on host ravg1158 reporting.
  Task       52 on host ravg1158 reporting.
  Task       53 on host ravg1158 reporting.
  Task       54 on host ravg1158 reporting.
  Task       55 on host ravg1158 reporting.
  Task       56 on host ravg1158 reporting.
  Task       57 on host ravg1158 reporting.
  Task       58 on host ravg1158 reporting.
  Task       59 on host ravg1158 reporting.
  Task       60 on host ravg1158 reporting.
  Task       61 on host ravg1158 reporting.
  Task       62 on host ravg1158 reporting.
  Task       63 on host ravg1158 reporting.
  Task       64 on host ravg1158 reporting.
  Task       65 on host ravg1158 reporting.
  Task       66 on host ravg1158 reporting.
  Task       67 on host ravg1158 reporting.
  Task       68 on host ravg1158 reporting.
  Task       69 on host ravg1158 reporting.
  Task       70 on host ravg1158 reporting.
  Task       71 on host ravg1158 reporting.
  Task       72 on host ravg1159 reporting.
  Task       73 on host ravg1159 reporting.
  Task       74 on host ravg1159 reporting.
  Task       75 on host ravg1159 reporting.
  Task       76 on host ravg1159 reporting.
  Task       77 on host ravg1159 reporting.
  Task       78 on host ravg1159 reporting.
  Task       79 on host ravg1159 reporting.
  Task       80 on host ravg1159 reporting.
  Task       81 on host ravg1159 reporting.
  Task       82 on host ravg1159 reporting.
  Task       83 on host ravg1159 reporting.
  Task       84 on host ravg1159 reporting.
  Task       85 on host ravg1159 reporting.
  Task       86 on host ravg1159 reporting.
  Task       87 on host ravg1159 reporting.
  Task       88 on host ravg1159 reporting.
  Task       89 on host ravg1159 reporting.
  Task       90 on host ravg1159 reporting.
  Task       91 on host ravg1159 reporting.
  Task       92 on host ravg1159 reporting.
  Task       93 on host ravg1159 reporting.
  Task       94 on host ravg1159 reporting.
  Task       95 on host ravg1159 reporting.
  Task       96 on host ravg1159 reporting.
  Task       97 on host ravg1159 reporting.
  Task       98 on host ravg1159 reporting.
  Task       99 on host ravg1159 reporting.
  Task      100 on host ravg1159 reporting.
  Task      101 on host ravg1159 reporting.
  Task      102 on host ravg1159 reporting.
  Task      103 on host ravg1159 reporting.
  Task      104 on host ravg1159 reporting.
  Task      105 on host ravg1159 reporting.
  Task      106 on host ravg1159 reporting.
  Task      107 on host ravg1159 reporting.
  Task      108 on host ravg1159 reporting.
  Task      109 on host ravg1159 reporting.
  Task      110 on host ravg1159 reporting.
  Task      111 on host ravg1159 reporting.
  Task      112 on host ravg1159 reporting.
  Task      113 on host ravg1159 reporting.
  Task      114 on host ravg1159 reporting.
  Task      115 on host ravg1159 reporting.
  Task      116 on host ravg1159 reporting.
  Task      117 on host ravg1159 reporting.
  Task      118 on host ravg1159 reporting.
  Task      119 on host ravg1159 reporting.
  Task      120 on host ravg1159 reporting.
  Task      121 on host ravg1159 reporting.
  Task      122 on host ravg1159 reporting.
  Task      123 on host ravg1159 reporting.
  Task      124 on host ravg1159 reporting.
  Task      125 on host ravg1159 reporting.
  Task      126 on host ravg1159 reporting.
  Task      127 on host ravg1159 reporting.
  Task      128 on host ravg1159 reporting.
  Task      129 on host ravg1159 reporting.
  Task      130 on host ravg1159 reporting.
  Task      131 on host ravg1159 reporting.
  Task      132 on host ravg1159 reporting.
  Task      133 on host ravg1159 reporting.
  Task      134 on host ravg1159 reporting.
  Task      135 on host ravg1159 reporting.
  Task      136 on host ravg1159 reporting.
  Task      137 on host ravg1159 reporting.
  Task      138 on host ravg1159 reporting.
  Task      139 on host ravg1159 reporting.
  Task      140 on host ravg1159 reporting.
  Task      141 on host ravg1159 reporting.
  Task      142 on host ravg1159 reporting.
  Task      143 on host ravg1159 reporting.
  Task      144 on host ravg1160 reporting.
  Task      145 on host ravg1160 reporting.
  Task      146 on host ravg1160 reporting.
  Task      147 on host ravg1160 reporting.
  Task      148 on host ravg1160 reporting.
  Task      149 on host ravg1160 reporting.
  Task      150 on host ravg1160 reporting.
  Task      151 on host ravg1160 reporting.
  Task      152 on host ravg1160 reporting.
  Task      153 on host ravg1160 reporting.
  Task      154 on host ravg1160 reporting.
  Task      155 on host ravg1160 reporting.
  Task      156 on host ravg1160 reporting.
  Task      157 on host ravg1160 reporting.
  Task      158 on host ravg1160 reporting.
  Task      159 on host ravg1160 reporting.
  Task      160 on host ravg1160 reporting.
  Task      161 on host ravg1160 reporting.
  Task      162 on host ravg1160 reporting.
  Task      163 on host ravg1160 reporting.
  Task      164 on host ravg1160 reporting.
  Task      165 on host ravg1160 reporting.
  Task      166 on host ravg1160 reporting.
  Task      167 on host ravg1160 reporting.
  Task      168 on host ravg1160 reporting.
  Task      169 on host ravg1160 reporting.
  Task      170 on host ravg1160 reporting.
  Task      171 on host ravg1160 reporting.
  Task      172 on host ravg1160 reporting.
  Task      173 on host ravg1160 reporting.
  Task      174 on host ravg1160 reporting.
  Task      175 on host ravg1160 reporting.
  Task      176 on host ravg1160 reporting.
  Task      177 on host ravg1160 reporting.
  Task      178 on host ravg1160 reporting.
  Task      179 on host ravg1160 reporting.
  Task      180 on host ravg1160 reporting.
  Task      181 on host ravg1160 reporting.
  Task      182 on host ravg1160 reporting.
  Task      183 on host ravg1160 reporting.
  Task      184 on host ravg1160 reporting.
  Task      185 on host ravg1160 reporting.
  Task      186 on host ravg1160 reporting.
  Task      187 on host ravg1160 reporting.
  Task      188 on host ravg1160 reporting.
  Task      189 on host ravg1160 reporting.
  Task      190 on host ravg1160 reporting.
  Task      191 on host ravg1160 reporting.
  Task      192 on host ravg1160 reporting.
  Task      193 on host ravg1160 reporting.
  Task      194 on host ravg1160 reporting.
  Task      195 on host ravg1160 reporting.
  Task      196 on host ravg1160 reporting.
  Task      197 on host ravg1160 reporting.
  Task      198 on host ravg1160 reporting.
  Task      199 on host ravg1160 reporting.
  Task      200 on host ravg1160 reporting.
  Task      201 on host ravg1160 reporting.
  Task      202 on host ravg1160 reporting.
  Task      203 on host ravg1160 reporting.
  Task      204 on host ravg1160 reporting.
  Task      205 on host ravg1160 reporting.
  Task      206 on host ravg1160 reporting.
  Task      207 on host ravg1160 reporting.
  Task      208 on host ravg1160 reporting.
  Task      209 on host ravg1160 reporting.
  Task      210 on host ravg1160 reporting.
  Task      211 on host ravg1160 reporting.
  Task      212 on host ravg1160 reporting.
  Task      213 on host ravg1160 reporting.
  Task      214 on host ravg1160 reporting.
  Task      215 on host ravg1160 reporting.
  Task      216 on host ravg1163 reporting.
  Task      217 on host ravg1163 reporting.
  Task      218 on host ravg1163 reporting.
  Task      219 on host ravg1163 reporting.
  Task      220 on host ravg1163 reporting.
  Task      221 on host ravg1163 reporting.
  Task      222 on host ravg1163 reporting.
  Task      223 on host ravg1163 reporting.
  Task      224 on host ravg1163 reporting.
  Task      225 on host ravg1163 reporting.
  Task      226 on host ravg1163 reporting.
  Task      227 on host ravg1163 reporting.
  Task      228 on host ravg1163 reporting.
  Task      229 on host ravg1163 reporting.
  Task      230 on host ravg1163 reporting.
  Task      231 on host ravg1163 reporting.
  Task      232 on host ravg1163 reporting.
  Task      233 on host ravg1163 reporting.
  Task      234 on host ravg1163 reporting.
  Task      235 on host ravg1163 reporting.
  Task      236 on host ravg1163 reporting.
  Task      237 on host ravg1163 reporting.
  Task      238 on host ravg1163 reporting.
  Task      239 on host ravg1163 reporting.
  Task      240 on host ravg1163 reporting.
  Task      241 on host ravg1163 reporting.
  Task      242 on host ravg1163 reporting.
  Task      243 on host ravg1163 reporting.
  Task      244 on host ravg1163 reporting.
  Task      245 on host ravg1163 reporting.
  Task      246 on host ravg1163 reporting.
  Task      247 on host ravg1163 reporting.
  Task      248 on host ravg1163 reporting.
  Task      249 on host ravg1163 reporting.
  Task      250 on host ravg1163 reporting.
  Task      251 on host ravg1163 reporting.
  Task      252 on host ravg1163 reporting.
  Task      253 on host ravg1163 reporting.
  Task      254 on host ravg1163 reporting.
  Task      255 on host ravg1163 reporting.
  Task      256 on host ravg1163 reporting.
  Task      257 on host ravg1163 reporting.
  Task      258 on host ravg1163 reporting.
  Task      259 on host ravg1163 reporting.
  Task      260 on host ravg1163 reporting.
  Task      261 on host ravg1163 reporting.
  Task      262 on host ravg1163 reporting.
  Task      263 on host ravg1163 reporting.
  Task      264 on host ravg1163 reporting.
  Task      265 on host ravg1163 reporting.
  Task      266 on host ravg1163 reporting.
  Task      267 on host ravg1163 reporting.
  Task      268 on host ravg1163 reporting.
  Task      269 on host ravg1163 reporting.
  Task      270 on host ravg1163 reporting.
  Task      271 on host ravg1163 reporting.
  Task      272 on host ravg1163 reporting.
  Task      273 on host ravg1163 reporting.
  Task      274 on host ravg1163 reporting.
  Task      275 on host ravg1163 reporting.
  Task      276 on host ravg1163 reporting.
  Task      277 on host ravg1163 reporting.
  Task      278 on host ravg1163 reporting.
  Task      279 on host ravg1163 reporting.
  Task      280 on host ravg1163 reporting.
  Task      281 on host ravg1163 reporting.
  Task      282 on host ravg1163 reporting.
  Task      283 on host ravg1163 reporting.
  Task      284 on host ravg1163 reporting.
  Task      285 on host ravg1163 reporting.
  Task      286 on host ravg1163 reporting.
  Task      287 on host ravg1163 reporting.

  Performing system and environment tests:
  | Environment variable OMP_NUM_THREADS correctly set to 1.
  | Checking for ScaLAPACK...
  | Testing pdtran()...
  | All pdtran() tests passed.

  Obtaining array dimensions for all initial allocations:
  
  -----------------------------------------------------------------------
  Parsing control.in (first pass over file, find array dimensions only).
  The contents of control.in will be repeated verbatim below
  unless switched off by setting 'verbatim_writeout .false.' .
  in the first line of control.in .
  -----------------------------------------------------------------------
  
  xc                 hse06  0.11
  hse_unit b
  spin               collinear
  default_initial_moment 1
  charge      0.0
  relativistic       atomic_zora scalar
  #elsi_restart read
  # SCF settings
  #relax_geometry bfgs 1E-3
  #relax_unit_cell fixed_angles
  #use_symmetric_forces .true.
  occupation_type gaussian       0.1
  # k-grid settings  (to be adjusted)
  k_grid  4 4 1
  #empty_states 8
  use_dipole_correction
  output dos_tetrahedron -10 0 4000 0.1
  output atom_proj_dos_tetrahedron -10 0 4000 0.1
  output species_proj_dos_tetrahedron -10 0 4000 0.1
  include_spin_orbit non_self_consistent
  # sc_accuracy_rho    1E-4
  #    sc_accuracy_eev    1E-3
  #    sc_accuracy_etot   1E-4
  #    sc_accuracy_forces 1E-2
  many_body_dispersion_nl    beta=0.83
  ################################################################################
  #
  #  FHI-aims code project
  #  Volker Blum, 2018
  #
  #  Suggested "intermediate" defaults for Se atom (to be pasted into control.in file)
  #
  #  2020/09/15 These "intermediate" settings are identical to past "tight" defaults
  #             and differ only in the "g" function that is now included in "tight".
  #
  ################################################################################
    species        Se
  #     global species definitions
      nucleus             34
      mass                78.96
  #
      l_hartree           6
  #
      cut_pot             4.0          2.0  1.0
      basis_dep_cutoff    1e-4
  #
      radial_base         55 7.0
      radial_multiplier   2
      angular_grids       specified
        division   0.0830  110
        division   0.1357  194
        division   0.7377  302
        division   0.8610  434
  #      division   0.9640  590
  #      division   1.0773  770
  #      division   2.5539  974
  #      outer_grid  974
        outer_grid  434
  ################################################################################
  #
  #  Definition of "minimal" basis
  #
  ################################################################################
  #     valence basis states
      valence      4  s   2.
      valence      4  p   4.
      valence      3  d  10.
  #     ion occupancy
      ion_occ      4  s   1.
      ion_occ      4  p   3.
      ion_occ      3  d  10.
  ################################################################################
  #
  #  Suggested additional basis functions. For production calculations,
  #  uncomment them one after another (the most important basis functions are
  #  listed first).
  #
  #  Constructed for dimers: 1.85 A, 2.15 A, 2.50 A, 3.00 A, 4.00 A
  #
  ################################################################################
  #  "First tier" - improvements: -336.21 meV to -36.85 meV
       hydro 3 d 4.3
       hydro 2 p 1.6
       hydro 4 f 7.2
       ionic 4 s auto
  #  "Second tier" - improvements: -14.39 meV to -1.49 meV
  #     hydro 5 g 10.4
  #     hydro 4 p 4.5
  #     hydro 4 d 6.2
  #     hydro 4 f 11.2
  #     hydro 1 s 0.65
  #     hydro 6 h 15.2
  #  "Third tier" - improvements: -0.46 meV and below
  #     hydro 5 g 14.4
  #     ionic 4 d auto
  #     hydro 4 f 22.4
  #     hydro 5 f 7.4
  #     hydro 5 p 8
  #     hydro 5 s 9.4
  #  "Fourth tier" - improvements: -0.12 meV and below
  #     hydro 5 d 11.6
  #     hydro 6 h 18
  #     hydro 4 p 4
  #     hydro 5 f 16
  #     hydro 4 s 3.9
  
  
  ################################################################################
  #
  #  FHI-aims code project
  #  Volker Blum, 2018
  #
  #  Suggested "intermediate" defaults for S atom (to be pasted into control.in file)
  #
  ################################################################################
    species        S
  #     global species definitions
      nucleus             16
      mass                32.065
  #
      l_hartree           6
  #
      cut_pot             4.0          2.0  1.0
      basis_dep_cutoff    1e-4
  #
      radial_base         44 7.0
      radial_multiplier   2
      angular_grids       specified
        division   0.4665  110
        division   0.5810  194
        division   0.7139  302
        division   0.8274  434
  #      division   0.9105  590
  #      division   1.0975  770
  #      division   1.2028  974
  #      outer_grid  974
        outer_grid  434
  ################################################################################
  #
  #  Definition of "minimal" basis
  #
  ################################################################################
  #     valence basis states
      valence      3  s   2.
      valence      3  p   4.
  #     ion occupancy
      ion_occ      3  s   1.
      ion_occ      3  p   3.
  ################################################################################
  #
  #  Suggested additional basis functions. For production calculations,
  #  uncomment them one after another (the most important basis functions are
  #  listed first).
  #
  #  Constructed for dimers: 1.6 A, 1.9 A, 2.5 A, 3.25 A, 4.0 A
  #
  ################################################################################
  #  "First tier" - improvements: -652.81 meV to -45.53 meV
       ionic 3 d auto
       hydro 2 p 1.8
       hydro 4 f 7
       ionic 3 s auto
  #  "Second tier" - improvements: -30.20 meV to -1.74 meV
  #     hydro 4 d 6.2
  for_aux     hydro 5 g 10.8
  #     hydro 4 p 4.9
  #     hydro 5 f 10
  #     hydro 1 s 0.8
  #  "Third tier" - improvements: -1.04 meV to -0.20 meV
  #     hydro 3 d 3.9
  #     hydro 3 d 2.7
  #     hydro 5 g 12
  #     hydro 4 p 10.4
  #     hydro 5 f 12.4
  #     hydro 2 s 1.9
  #  "Fourth tier" - improvements: -0.35 meV to -0.06 meV
  #     hydro 4 d 10.4
  #     hydro 4 p 7.2
  #     hydro 4 d 10
  #     hydro 5 g 19.2
  #     hydro 4 s 12
  
  ################################################################################
  #
  #  FHI-aims code project
  # Volker Blum, Fritz Haber Institute Berlin, 2009
  #
  #  Suggested "intermediate" defaults for Mo atom (to be pasted into control.in file)
  #
  #  See https://aaltodoc.aalto.fi/handle/123456789/33620 for the report these
  #  setting are based on
  ################################################################################
    species        Mo
  #     global species definitions
      nucleus             42
      mass                95.94
  #
      l_hartree           6
  #
      cut_pot             4.0  2.0  1.0
      basis_dep_cutoff    1e-4
  #
      radial_base         59 7.0
      radial_multiplier   2
      angular_grids specified
        division   0.3117   50
        division   0.6750  110
        division   1.0351  194
        division   1.2073  302
        division   1.6402  434
  #      division   1.9185  590
  #      division   2.0237  770
  #      division   2.0980  974
  #      division   2.7972 1202
  #      outer_grid  974
        outer_grid  434
  ################################################################################
  #
  #  Definition of "minimal" basis
  #
  ################################################################################
  #     valence basis states
      valence      5  s   1.
      valence      4  p   6.
      valence      4  d   5.
  #     ion occupancy
      ion_occ     5  s   0.
      ion_occ     4  p   6.
      ion_occ     4  d   4.
  ################################################################################
  #
  #  Suggested additional basis functions. For production calculations,
  #  uncomment them one after another (the most important basis functions are
  #  listed first).
  #
  #  Constructed for dimers: 1.675 A, 1.9 A, 2.375 A, 3.00 A, 4.00 A
  #
  ################################################################################
  #  "First tier"  - max. impr. -711.23  meV, min. impr. -21.07 meV
       hydro 4 f 8.4
       hydro 3 d 2.8
       ionic 5 p auto
       for_aux hydro 5 g 12
       ionic 5 s auto
  #  "Second tier" - max. impr. -39.38  meV, min. impr. -2.68 meV
  #     hydro 4 f 12.4
  #     hydro 3 d 3.3
  #     hydro 6 h 17.2
  #     hydro 4 f 7.6
  #     hydro 3 p 3.0
  #     hydro 1 s 0.65
  #  "Third tier"  - max. impr. -5.50 meV, min. impr. -0.47 meV
  #     hydro 4 f 29.2
  #     hydro 5 g 11.2
  #     hydro 3 d 6.8
  #     hydro 6 h 14.8
  #     hydro 2 p 2.3
  #     hydro 4 s 3.8
  #  "Fourth tier"  - max. impr. -0.58 meV, min. impr. -0.19 meV
  #     hydro 5 f 6.8
  #     hydro 5 d 14.8
  #     hydro 6 s 7.8
  #     hydro 5 g 20.8
  #     hydro 5 d 10.4
  #     hydro 5 p 9.8
  #  Further functions - -0.17 meV and below
  #     hydro 5 d 3.2
  ################################################################################
  #
  #  FHI-aims code project
  #  Volker Blum, Maria Dragoumi, Sebastian Kokott 2020
  #
  #  Suggested "intermediate" defaults for W atom (to be pasted into control.in file)
  #
  ################################################################################
    species          W
  #     global species definitions
      nucleus        74
      mass           183.84
  #
      l_hartree      6
  #
      cut_pot        4.0  2.0  1.0
      basis_dep_cutoff    1e-4
  #
      radial_base    71  7.0
      radial_multiplier  2
      angular_grids specified
        division   0.2901   50
        division   0.6986  110
        division   1.0528  194
        division   1.2659  302
        division   1.5223  434
  #      division   1.8111  590
  #      division   2.0105  770
  #      division   2.0413  974
  #      division   2.8804 1202
  #      outer_grid  974
        outer_grid  434
  ################################################################################
  #
  #  Definition of "minimal" basis
  #
  ################################################################################
  #     valence basis states
      valence      6  s   2.
      valence      5  p   6.
      valence      5  d   4.
      valence      4  f  14.
  #     ion occupancy
      ion_occ      6  s   1.
      ion_occ      5  p   6.
      ion_occ      5  d   3.
      ion_occ      4  f  14.
  ################################################################################
  #
  #  Suggested additional basis functions. For production calculations,
  #  uncomment them one after another (the most important basis functions are
  #  listed first).
  #
  #  Constructed for dimers: 1.775, 1.99, 2.50, 3.25, 4.50 AA
  #
  ################################################################################
  #
  #  "First tier" - improvements: -603.77 meV to -28.99 meV
       hydro 4 f 7.8
       hydro 4 d 5.8
       ionic 6 p auto
    for_aux   hydro 5 g 12.4
       ionic 6 s auto
  #  "Second tier" - improvements: -28.30 meV to -1.31 meV
  #     hydro 6 h 16.8
  #     ionic 5 d auto
  #     hydro 4 f 8.6
  #     hydro 5 g 16.8
  #     hydro 5 d 8.4
  #     hydro 3 p 3.3
  #     hydro 1 s 0.55
  #  "Third tier" - max. impr. -1.79 meV, min. impr. -0.26 meV
  #     hydro 5 f 10.8
  #     hydro 5 g 34.4
  #     hydro 6 h 20.8
  #     hydro 5 g 12.8
  #     hydro 2 p 1.6
  #     hydro 4 s 4.7
  #     hydro 6 d 18.4
  #  "Fourth tier" -0.46 max. impr. - meV, min. impr. -0.09 meV
  #     hydro 6 h 21.6
  #     hydro 5 f 22.4
  #     hydro 4 f 4
  #     hydro 5 p 9.6
  #     hydro 6 d 17.2
  #     hydro 3 p 5.2
  #     hydro 5 g 4.7
  #     hydro 6 s 7.6
  
  -----------------------------------------------------------------------
  Completed first pass over input file control.in .
  -----------------------------------------------------------------------
  
  
  -----------------------------------------------------------------------
  Parsing geometry.in (first pass over file, find array dimensions only).
  The contents of geometry.in will be repeated verbatim below
  unless switched off by setting 'verbatim_writeout .false.' .
  in the first line of geometry.in .
  -----------------------------------------------------------------------
  
  #
  # This is the geometry file that corresponds to the current relaxation step.
  # If you do not want this file to be written, set the "write_restart_geometry" flag to .false.
  #  aims_uuid : A99F1AC4-AFE4-48DF-A2D5-A4BD3C67D40B
  #
    set_vacuum_level       103.108052
  lattice_vector     15.72118630     -0.00130770      0.00000000
  lattice_vector     -7.86163315     13.61413775      0.00000000
  lattice_vector      0.00000000      0.00000000    103.10805205
  atom       7.07349571     13.15604627     51.58554167 Mo
  atom       0.79062185      0.45108050     53.13876965 S
  atom       0.78347315      0.45519547     50.03239827 S
  atom      13.36012334      2.26939830     51.58551194 Mo
  atom      -0.78628326      3.18187183     53.13873306 S
  atom      -0.78626804      3.17353924     50.03234218 S
  atom      11.77247289      4.98912749     51.56279472 Mo
  atom      -2.37753966      5.90291992     53.12193678 S
  atom      -2.35997751      5.89005975     50.01722467 S
  atom      10.18986681      7.69717181     51.52273823 Mo
  atom      -3.96048854      8.60512153     53.09680967 S
  atom      -3.93124502      8.62205413     49.99891681 S
  atom       8.63545497     10.42144949     51.56285862 Mo
  atom      -5.50969989     11.32682417     53.12200625 S
  atom      -5.51204765     11.34850753     50.01731494 S
  atom      -5.50283233     13.15982248     51.57900719 Mo
  atom       3.94281479      0.46809210     53.12202310 S
  atom       3.92287947      0.45928320     50.01733403 S
  atom       0.78854838      2.27044296     51.58553262 Mo
  atom       2.37438739      3.18581187     53.12834788 S
  atom       2.35268865      3.17318776     50.02122417 S
  atom      -0.78647093      4.99244416     51.57890826 Mo
  atom       0.80455995      5.90266134     53.12192259 S
  atom       0.78698782      5.88979188     50.01721898 S
  atom      -2.36557861      7.71026403     51.56078308 Mo
  atom      -0.78670022      8.61950890     53.11162852 S
  atom      -0.78671451      8.61789706     50.00972568 S
  atom      -3.93824787     10.43363149     51.56083826 Mo
  atom      -2.36113004     11.34594223     53.11168099 S
  atom      -2.36257752     11.34680334     50.00978505 S
  atom      -2.35954781     13.16791952     51.56086611 Mo
  atom       7.07451787      0.48728115     53.09686363 S
  atom       7.07449823      0.45349815     49.99898045 S
  atom       3.93778843      2.28500239     51.56287765 Mo
  atom       5.55206950      3.25305408     53.07744310 S
  atom       5.48587795      3.19624617     49.96836866 S
  atom       2.37578928      4.98992824     51.56278253 Mo
  atom       4.02142415      5.90350483     53.07733931 S
  atom       3.93930997      5.87455765     49.96831233 S
  atom       0.79221562      7.71000852     51.56076861 Mo
  atom       2.38708846      8.60460468     53.09678294 S
  atom       2.35782702      8.62152601     49.99888320 S
  atom      -0.78689981     10.43710106     51.56031196 Mo
  atom       0.78730608     11.34568374     53.11165833 S
  atom       0.78871904     11.34654140     50.00976334 S
  atom       0.78534214     13.16766244     51.56084395 Mo
  atom      10.20623558      0.46753826     53.12198455 S
  atom      10.22614186      0.45874225     50.01728619 S
  atom       7.07431127      2.30097868     51.52279463 Mo
  atom       8.59661252      3.25267375     53.07741598 S
  atom       8.66270728      3.19598392     49.96839440 S
  atom       5.55437485      5.02138636     51.48231232 Mo
  atom       7.07414610      5.89852082     49.90969547 S
  atom       3.95793164      7.69767823     51.52270360 Mo
  atom       5.54351691      8.53975664     53.07732186 S
  atom       5.52751260      8.62537772     49.96833242 S
  atom       2.36444543     10.43310242     51.56080053 Mo
  atom       3.93586161     11.32605127     53.12195609 S
  atom       3.93820780     11.34771769     50.01725766 S
  atom       3.92864278     13.15903019     51.57895438 Mo
  atom      13.35839551      0.45003352     53.13874117 S
  atom      13.36558609      0.45415347     50.03237165 S
  atom      10.21088893      2.28443876     51.56283891 Mo
  atom      11.77423407      3.18499492     53.12833125 S
  atom      11.79594440      3.17241452     50.02119729 S
  atom       8.59388965      5.02110884     51.48235630 Mo
  atom      10.12680094      5.90298136     53.07736750 S
  atom      10.20890669      5.87405715     49.96836062 S
  atom       7.07390764      7.65325558     51.48230070 Mo
  atom       8.60419552      8.53939421     53.07739024 S
  atom       8.62027156      8.62514073     49.96834072 S
  atom       5.51193943     10.42173590     51.56280693 Mo
  atom       7.07366682     11.32500410     53.12835686 S
  atom       7.07371168     11.35009636     50.02122397 S
  #
  # What follows is the current estimated Hessian matrix constructed by the BFGS algorithm.
  # This is NOT the true Hessian matrix of the system.
  # If you do not want this information here, switch it off using the "hessian_to_restart_geometry" keyword.
  #
  
  -----------------------------------------------------------------------
  Completed first pass over input file geometry.in .
  -----------------------------------------------------------------------
  

  Basic array size parameters:
  | Number of species                 :        4
  | Number of atoms                   :       74
  | Number of lattice vectors         :        3
  | Max. basis fn. angular momentum   :        4
  | Max. atomic/ionic basis occupied n:        6
  | Max. number of basis fn. types    :        3
  | Max. radial fns per species/type  :       14
  | Max. logarithmic grid size        :     1483
  | Max. radial integration grid size :      143
  | Max. angular integration grid size:      434
  | Max. angular grid division number :        8
  | Radial grid for Hartree potential :     1483
  | Number of spin channels           :        2

------------------------------------------------------------
          Reading file control.in.
------------------------------------------------------------

  XC: Using HSE-functional with OMEGA =  0.110000E+00 <units>.
  XC: For the actual units (bohr^-1 or Angstrom^-1), see below.
  hse_unit: Unit for the HSE06 hybrid functional screening parameter set to bohr^(-1).
  Spin treatment: Spin density functional theory - collinear spins.
  Initial spin moment per atom:   1.0000
  Charge =   0.000000E+00: Neutral system requested explicitly.
  Scalar relativistic treatment of kinetic energy: on-site free-atom approximation to ZORA.
  Occupation type: Gaussian broadening, width =   0.100000E+00 eV.
  Found k-point grid:         4         4         1
  Using dipole correction.
  Calculating density of states with
  | energy interval :-10.000000  0.000000
  | points & tetrahedron method :  4000
  Calculating atom-projected density of states with
  | energy interval :-10.000000  0.000000
  | points & tetrahedron :  4000
  Calculating angular-momentum projected DOS with 
  | energy interval :-10.000000  0.000000
  | points & tetrahedron :  4000
  Calculating non-self-consistent second-variational spin-orbit coupling after scf-cycle
  You have request a SOC run with spin-polarization.
  symmetry_reduced_k_grid will be turned off.
  Using libMBD for calculating MBD and TS energies
 
  Reading configuration options for species Se                  .
  | Found nuclear charge :  34.0000
  | Found atomic mass :    78.9600000000000      amu
  | Found l_max for Hartree potential  :   6
  | Found cutoff potl. onset [A], width [A], scale factor :    4.00000    2.00000    1.00000
  | Threshold for basis-dependent cutoff potential is   0.100000E-03
  | Found data for basic radial integration grid :    55 points, outermost radius =    7.000 A
  | Found multiplier for basic radial grid :   2
  | Found angular grid specification: user-specified.
  | Specified grid contains     5 separate shells.
  | Check grid settings after all constraints further below.
  | Found free-atom valence shell :  4 s   2.000
  | Found free-atom valence shell :  4 p   4.000
  | Found free-atom valence shell :  3 d  10.000
  | Found free-ion valence shell :  4 s   1.000
  | Found free-ion valence shell :  4 p   3.000
  | Found free-ion valence shell :  3 d  10.000
  | Found hydrogenic basis function :  3 d   4.300
  | Found hydrogenic basis function :  2 p   1.600
  | Found hydrogenic basis function :  4 f   7.200
  | Found ionic basis function :  4 s , default cutoff radius.
  Species Se                  : Missing cutoff potential type.
  Defaulting to exp(1/x)/(1-x)^2 type cutoff potential.
  Species Se: No 'logarithmic' tag. Using default grid for free atom:
  | Default logarithmic grid data [bohr] : 0.1000E-03 0.1000E+03 0.1012E+01
  | Will include ionic basis functions of  2.0-fold positive Se                   ion.
  Species Se: On-site basis accuracy parameter (for Gram-Schmidt orthonormalisation) not specified.
  Using default value basis_acc =  0.1000000E-03.
  Species Se                  : Using default innermost maximum threshold i_radial=  2 for radial functions.
  Species Se                  : Default cutoff onset for free atom density etc. : 0.40000000E+01 AA.
  Species Se                  : Basic radial grid will be enhanced according to radial_multiplier =   2, to contain   111 grid points.
 
  Reading configuration options for species S                   .
  | Found nuclear charge :  16.0000
  | Found atomic mass :    32.0650000000000      amu
  | Found l_max for Hartree potential  :   6
  | Found cutoff potl. onset [A], width [A], scale factor :    4.00000    2.00000    1.00000
  | Threshold for basis-dependent cutoff potential is   0.100000E-03
  | Found data for basic radial integration grid :    44 points, outermost radius =    7.000 A
  | Found multiplier for basic radial grid :   2
  | Found angular grid specification: user-specified.
  | Specified grid contains     5 separate shells.
  | Check grid settings after all constraints further below.
  | Found free-atom valence shell :  3 s   2.000
  | Found free-atom valence shell :  3 p   4.000
  | Found free-ion valence shell :  3 s   1.000
  | Found free-ion valence shell :  3 p   3.000
  | Found ionic basis function :  3 d , default cutoff radius.
  | Found hydrogenic basis function :  2 p   1.800
  | Found hydrogenic basis function :  4 f   7.000
  | Found ionic basis function :  3 s , default cutoff radius.
  | Found hydrogenic extended basis function :  5 g  10.800
  Species S                   : Missing cutoff potential type.
  Defaulting to exp(1/x)/(1-x)^2 type cutoff potential.
  Species S : No 'logarithmic' tag. Using default grid for free atom:
  | Default logarithmic grid data [bohr] : 0.1000E-03 0.1000E+03 0.1012E+01
  | Will include ionic basis functions of  2.0-fold positive S                    ion.
  Species S : On-site basis accuracy parameter (for Gram-Schmidt orthonormalisation) not specified.
  Using default value basis_acc =  0.1000000E-03.
  Species S                   : Using default innermost maximum threshold i_radial=  2 for radial functions.
  Species S                   : Default cutoff onset for free atom density etc. : 0.40000000E+01 AA.
  Species S                   : Basic radial grid will be enhanced according to radial_multiplier =   2, to contain    89 grid points.
 
  Reading configuration options for species Mo                  .
  | Found nuclear charge :  42.0000
  | Found atomic mass :    95.9400000000000      amu
  | Found l_max for Hartree potential  :   6
  | Found cutoff potl. onset [A], width [A], scale factor :    4.00000    2.00000    1.00000
  | Threshold for basis-dependent cutoff potential is   0.100000E-03
  | Found data for basic radial integration grid :    59 points, outermost radius =    7.000 A
  | Found multiplier for basic radial grid :   2
  | Found angular grid specification: user-specified.
  | Specified grid contains     6 separate shells.
  | Check grid settings after all constraints further below.
  | Found free-atom valence shell :  5 s   1.000
  | Found free-atom valence shell :  4 p   6.000
  | Found free-atom valence shell :  4 d   5.000
  | Found free-ion valence shell :  5 s   0.000
  | Found free-ion valence shell :  4 p   6.000
  | Found free-ion valence shell :  4 d   4.000
  | Found hydrogenic basis function :  4 f   8.400
  | Found hydrogenic basis function :  3 d   2.800
  | Found ionic basis function :  5 p , default cutoff radius.
  | Found hydrogenic extended basis function :  5 g  12.000
  | Found ionic basis function :  5 s , default cutoff radius.
  Species Mo                  : Missing cutoff potential type.
  Defaulting to exp(1/x)/(1-x)^2 type cutoff potential.
  Species Mo: No 'logarithmic' tag. Using default grid for free atom:
  | Default logarithmic grid data [bohr] : 0.1000E-03 0.1000E+03 0.1012E+01
  | Will include ionic basis functions of  2.0-fold positive Mo                   ion.
  Species Mo: On-site basis accuracy parameter (for Gram-Schmidt orthonormalisation) not specified.
  Using default value basis_acc =  0.1000000E-03.
  Species Mo                  : Using default innermost maximum threshold i_radial=  2 for radial functions.
  Species Mo                  : Default cutoff onset for free atom density etc. : 0.40000000E+01 AA.
  Species Mo                  : Basic radial grid will be enhanced according to radial_multiplier =   2, to contain   119 grid points.
 
  Reading configuration options for species W                   .
  | Found nuclear charge :  74.0000
  | Found atomic mass :    183.840000000000      amu
  | Found l_max for Hartree potential  :   6
  | Found cutoff potl. onset [A], width [A], scale factor :    4.00000    2.00000    1.00000
  | Threshold for basis-dependent cutoff potential is   0.100000E-03
  | Found data for basic radial integration grid :    71 points, outermost radius =    7.000 A
  | Found multiplier for basic radial grid :   2
  | Found angular grid specification: user-specified.
  | Specified grid contains     6 separate shells.
  | Check grid settings after all constraints further below.
  | Found free-atom valence shell :  6 s   2.000
  | Found free-atom valence shell :  5 p   6.000
  | Found free-atom valence shell :  5 d   4.000
  | Found free-atom valence shell :  4 f  14.000
  | Found free-ion valence shell :  6 s   1.000
  | Found free-ion valence shell :  5 p   6.000
  | Found free-ion valence shell :  5 d   3.000
  | Found free-ion valence shell :  4 f  14.000
  | Found hydrogenic basis function :  4 f   7.800
  | Found hydrogenic basis function :  4 d   5.800
  | Found ionic basis function :  6 p , default cutoff radius.
  | Found hydrogenic extended basis function :  5 g  12.400
  | Found ionic basis function :  6 s , default cutoff radius.
  Species W                   : Missing cutoff potential type.
  Defaulting to exp(1/x)/(1-x)^2 type cutoff potential.
  Species W : No 'logarithmic' tag. Using default grid for free atom:
  | Default logarithmic grid data [bohr] : 0.1000E-03 0.1000E+03 0.1012E+01
  | Will include ionic basis functions of  2.0-fold positive W                    ion.
  Species W : On-site basis accuracy parameter (for Gram-Schmidt orthonormalisation) not specified.
  Using default value basis_acc =  0.1000000E-03.
  Species W                   : Using default innermost maximum threshold i_radial=  2 for radial functions.
  Species W                   : Default cutoff onset for free atom density etc. : 0.40000000E+01 AA.
  Species W                   : Basic radial grid will be enhanced according to radial_multiplier =   2, to contain   143 grid points.
 
  Finished reading input file 'control.in'.
 
------------------------------------------------------------


------------------------------------------------------------
          Reading geometry description geometry.in.
------------------------------------------------------------
  Vacuum level in z-axis :   0.103108E+03
  | The smallest distance between any two atoms is         2.35630672 AA.
  | The first atom of this pair is atom number                     69 .
  | The second atom of this pair is atom number                    53 .
  | Wigner-Seitz cell of the first atom image           0     1     0 .
  | (The Wigner-Seitz cell of the second atom is 0 0 0  by definition.)

  Symmetry information by spglib:
  | Precision set to  0.1E-04
  | Number of Operations  : 1
  | Space group           : 1
  | International         : P1
  | Schoenflies           : C1^1
  Input structure read successfully.
  The structure contains       74 atoms,  and a total of       1834.000 electrons.

  Input geometry:
  | Unit cell:
  |       15.72118630       -0.00130770        0.00000000
  |       -7.86163315       13.61413775        0.00000000
  |        0.00000000        0.00000000      103.10805205
  | Atomic structure:
  |       Atom                x [A]            y [A]            z [A]
  |    1: Species Mo            7.07349571       13.15604627       51.58554167
  |    2: Species S             0.79062185        0.45108050       53.13876965
  |    3: Species S             0.78347315        0.45519547       50.03239827
  |    4: Species Mo           13.36012334        2.26939830       51.58551194
  |    5: Species S            -0.78628326        3.18187183       53.13873306
  |    6: Species S            -0.78626804        3.17353924       50.03234218
  |    7: Species Mo           11.77247289        4.98912749       51.56279472
  |    8: Species S            -2.37753966        5.90291992       53.12193678
  |    9: Species S            -2.35997751        5.89005975       50.01722467
  |   10: Species Mo           10.18986681        7.69717181       51.52273823
  |   11: Species S            -3.96048854        8.60512153       53.09680967
  |   12: Species S            -3.93124502        8.62205413       49.99891681
  |   13: Species Mo            8.63545497       10.42144949       51.56285862
  |   14: Species S            -5.50969989       11.32682417       53.12200625
  |   15: Species S            -5.51204765       11.34850753       50.01731494
  |   16: Species Mo           -5.50283233       13.15982248       51.57900719
  |   17: Species S             3.94281479        0.46809210       53.12202310
  |   18: Species S             3.92287947        0.45928320       50.01733403
  |   19: Species Mo            0.78854838        2.27044296       51.58553262
  |   20: Species S             2.37438739        3.18581187       53.12834788
  |   21: Species S             2.35268865        3.17318776       50.02122417
  |   22: Species Mo           -0.78647093        4.99244416       51.57890826
  |   23: Species S             0.80455995        5.90266134       53.12192259
  |   24: Species S             0.78698782        5.88979188       50.01721898
  |   25: Species Mo           -2.36557861        7.71026403       51.56078308
  |   26: Species S            -0.78670022        8.61950890       53.11162852
  |   27: Species S            -0.78671451        8.61789706       50.00972568
  |   28: Species Mo           -3.93824787       10.43363149       51.56083826
  |   29: Species S            -2.36113004       11.34594223       53.11168099
  |   30: Species S            -2.36257752       11.34680334       50.00978505
  |   31: Species Mo           -2.35954781       13.16791952       51.56086611
  |   32: Species S             7.07451787        0.48728115       53.09686363
  |   33: Species S             7.07449823        0.45349815       49.99898045
  |   34: Species Mo            3.93778843        2.28500239       51.56287765
  |   35: Species S             5.55206950        3.25305408       53.07744310
  |   36: Species S             5.48587795        3.19624617       49.96836866
  |   37: Species Mo            2.37578928        4.98992824       51.56278253
  |   38: Species S             4.02142415        5.90350483       53.07733931
  |   39: Species S             3.93930997        5.87455765       49.96831233
  |   40: Species Mo            0.79221562        7.71000852       51.56076861
  |   41: Species S             2.38708846        8.60460468       53.09678294
  |   42: Species S             2.35782702        8.62152601       49.99888320
  |   43: Species Mo           -0.78689981       10.43710106       51.56031196
  |   44: Species S             0.78730608       11.34568374       53.11165833
  |   45: Species S             0.78871904       11.34654140       50.00976334
  |   46: Species Mo            0.78534214       13.16766244       51.56084395
  |   47: Species S            10.20623558        0.46753826       53.12198455
  |   48: Species S            10.22614186        0.45874225       50.01728619
  |   49: Species Mo            7.07431127        2.30097868       51.52279463
  |   50: Species S             8.59661252        3.25267375       53.07741598
  |   51: Species S             8.66270728        3.19598392       49.96839440
  |   52: Species Mo            5.55437485        5.02138636       51.48231232
  |   53: Species S             7.07414610        5.89852082       49.90969547
  |   54: Species Mo            3.95793164        7.69767823       51.52270360
  |   55: Species S             5.54351691        8.53975664       53.07732186
  |   56: Species S             5.52751260        8.62537772       49.96833242
  |   57: Species Mo            2.36444543       10.43310242       51.56080053
  |   58: Species S             3.93586161       11.32605127       53.12195609
  |   59: Species S             3.93820780       11.34771769       50.01725766
  |   60: Species Mo            3.92864278       13.15903019       51.57895438
  |   61: Species S            13.35839551        0.45003352       53.13874117
  |   62: Species S            13.36558609        0.45415347       50.03237165
  |   63: Species Mo           10.21088893        2.28443876       51.56283891
  |   64: Species S            11.77423407        3.18499492       53.12833125
  |   65: Species S            11.79594440        3.17241452       50.02119729
  |   66: Species Mo            8.59388965        5.02110884       51.48235630
  |   67: Species S            10.12680094        5.90298136       53.07736750
  |   68: Species S            10.20890669        5.87405715       49.96836062
  |   69: Species Mo            7.07390764        7.65325558       51.48230070
  |   70: Species S             8.60419552        8.53939421       53.07739024
  |   71: Species S             8.62027156        8.62514073       49.96834072
  |   72: Species Mo            5.51193943       10.42173590       51.56280693
  |   73: Species S             7.07366682       11.32500410       53.12835686
  |   74: Species S             7.07371168       11.35009636       50.02122397

  Lattice parameters for 3D lattice (in Angstroms) :    15.721186   15.721006  103.108052
  Angle(s) between unit vectors (in degrees)       :    90.000000   90.000000  120.009523


  Quantities derived from the lattice vectors:
  | Reciprocal lattice vector 1:  0.399683  0.230801  0.000000
  | Reciprocal lattice vector 2:  0.000038  0.461541  0.000000
  | Reciprocal lattice vector 3:  0.000000  0.000000  0.060938
  | Unit cell volume                               :   0.220672E+05  A^3

  Fractional coordinates:
                         L1                L2                L3
       atom_frac         0.93321861        0.96644142        0.50030566  Mo
       atom_frac         0.06686224        0.03313966        0.51536974  S
       atom_frac         0.06655866        0.03344189        0.48524240  S
       atom_frac         0.93321946        0.16678388        0.50030537  Mo
       atom_frac         0.06686353        0.23372463        0.51536938  S
       atom_frac         0.06655842        0.23311254        0.48524185  S
       atom_frac         0.93213088        0.36655619        0.50008504  Mo
       atom_frac         0.06559401        0.43359380        0.51520648  S
       atom_frac         0.06623877        0.43264924        0.48509523  S
       atom_frac         0.93093395        0.56547020        0.49969655  Mo
       atom_frac         0.06416066        0.63207862        0.51496279  S
       atom_frac         0.06664287        0.63332261        0.48491767  S
       atom_frac         0.93212681        0.76557683        0.50008566  Mo
       atom_frac         0.06558974        0.83199613        0.51520716  S
       atom_frac         0.06623689        0.83358890        0.48509611  S
       atom_frac         0.13335840        0.96664197        0.50024228  Mo
       atom_frac         0.26800281        0.03440854        0.51520732  S
       atom_frac         0.26641111        0.03376134        0.48509629  S
       atom_frac         0.13356126        0.16678380        0.50030557  Mo
       atom_frac         0.26806322        0.23403336        0.51526866  S
       atom_frac         0.26621921        0.23310590        0.48513402  S
       atom_frac         0.13335962        0.36672308        0.50024132  Mo
       atom_frac         0.26800260        0.43359425        0.51520634  S
       atom_frac         0.26641208        0.43264879        0.48509518  S
       atom_frac         0.13274432        0.56635519        0.50006553  Mo
       atom_frac         0.26657855        0.63315486        0.51510651  S
       atom_frac         0.26651843        0.63303646        0.48502250  S
       atom_frac         0.13274236        0.76639485        0.50006607  Mo
       atom_frac         0.26657721        0.83341972        0.51510702  S
       atom_frac         0.26651677        0.83348296        0.48502308  S
       atom_frac         0.33360483        0.96725595        0.50006634  Mo
       atom_frac         0.46791997        0.03583723        0.51496331  S
       atom_frac         0.46667777        0.03335565        0.48491829  S
       atom_frac         0.33442391        0.16787253        0.50008585  Mo
       atom_frac         0.47267032        0.23899216        0.51477496  S
       atom_frac         0.46637305        0.23481884        0.48462140  S
       atom_frac         0.33442327        0.36655759        0.50008493  Mo
       atom_frac         0.47266310        0.43367586        0.51477395  S
       atom_frac         0.46637638        0.43154900        0.48462085  S
       atom_frac         0.33360692        0.56635572        0.50006539  Mo
       atom_frac         0.46792049        0.63207944        0.51496253  S
       atom_frac         0.46668070        0.63332225        0.48491735  S
       atom_frac         0.33333174        0.76666897        0.50006096  Mo
       atom_frac         0.46684442        0.83341997        0.51510680  S
       atom_frac         0.46696581        0.83348298        0.48502287  S
       atom_frac         0.53364651        0.96725628        0.50006612  Mo
       atom_frac         0.66640797        0.03440612        0.51520695  S
       atom_frac         0.66735114        0.03376012        0.48509583  S
       atom_frac         0.53452966        0.16906526        0.49969710  Mo
       atom_frac         0.66632426        0.23898283        0.51477469  S
       atom_frac         0.66844625        0.23481899        0.48462165  S
       atom_frac         0.53777338        0.36888782        0.49930448  Mo
       atom_frac         0.66666821        0.43332841        0.48405236  S
       atom_frac         0.53452989        0.56546932        0.49969622  Mo
       atom_frac         0.66632352        0.62733521        0.51477378  S
       atom_frac         0.66845060        0.63362455        0.48462105  S
       atom_frac         0.53364661        0.76639450        0.50006570  Mo
       atom_frac         0.66640756        0.83199707        0.51520667  S
       atom_frac         0.66735268        0.83358863        0.48509555  S
       atom_frac         0.73327945        0.96664139        0.50024177  Mo
       atom_frac         0.86627855        0.03313955        0.51536946  S
       atom_frac         0.86688729        0.03344223        0.48524214  S
       atom_frac         0.73344446        0.16786946        0.50008547  Mo
       atom_frac         0.86597143        0.23403079        0.51526850  S
       atom_frac         0.86689034        0.23310680        0.48513376  S
       atom_frac         0.73111125        0.36888601        0.49930491  Mo
       atom_frac         0.86101597        0.43367472        0.51477422  S
       atom_frac         0.86517636        0.43155054        0.48462132  S
       atom_frac         0.73110997        0.56222522        0.49930437  Mo
       atom_frac         0.86100452        0.62732729        0.51477444  S
       atom_frac         0.86517689        0.63362603        0.48462113  S
       atom_frac         0.73344586        0.76557878        0.50008516  Mo
       atom_frac         0.86596955        0.83193932        0.51526875  S
       atom_frac         0.86689412        0.83378251        0.48513402  S

  Initial moments and charges:
  |  Atom   Moment         Charge        Species
  |     1   0.100000E+01   0.000000E+00   Mo
  |     2   0.100000E+01   0.000000E+00   S
  |     3   0.100000E+01   0.000000E+00   S
  |     4   0.100000E+01   0.000000E+00   Mo
  |     5   0.100000E+01   0.000000E+00   S
  |     6   0.100000E+01   0.000000E+00   S
  |     7   0.100000E+01   0.000000E+00   Mo
  |     8   0.100000E+01   0.000000E+00   S
  |     9   0.100000E+01   0.000000E+00   S
  |    10   0.100000E+01   0.000000E+00   Mo
  |    11   0.100000E+01   0.000000E+00   S
  |    12   0.100000E+01   0.000000E+00   S
  |    13   0.100000E+01   0.000000E+00   Mo
  |    14   0.100000E+01   0.000000E+00   S
  |    15   0.100000E+01   0.000000E+00   S
  |    16   0.100000E+01   0.000000E+00   Mo
  |    17   0.100000E+01   0.000000E+00   S
  |    18   0.100000E+01   0.000000E+00   S
  |    19   0.100000E+01   0.000000E+00   Mo
  |    20   0.100000E+01   0.000000E+00   S
  |    21   0.100000E+01   0.000000E+00   S
  |    22   0.100000E+01   0.000000E+00   Mo
  |    23   0.100000E+01   0.000000E+00   S
  |    24   0.100000E+01   0.000000E+00   S
  |    25   0.100000E+01   0.000000E+00   Mo
  |    26   0.100000E+01   0.000000E+00   S
  |    27   0.100000E+01   0.000000E+00   S
  |    28   0.100000E+01   0.000000E+00   Mo
  |    29   0.100000E+01   0.000000E+00   S
  |    30   0.100000E+01   0.000000E+00   S
  |    31   0.100000E+01   0.000000E+00   Mo
  |    32   0.100000E+01   0.000000E+00   S
  |    33   0.100000E+01   0.000000E+00   S
  |    34   0.100000E+01   0.000000E+00   Mo
  |    35   0.100000E+01   0.000000E+00   S
  |    36   0.100000E+01   0.000000E+00   S
  |    37   0.100000E+01   0.000000E+00   Mo
  |    38   0.100000E+01   0.000000E+00   S
  |    39   0.100000E+01   0.000000E+00   S
  |    40   0.100000E+01   0.000000E+00   Mo
  |    41   0.100000E+01   0.000000E+00   S
  |    42   0.100000E+01   0.000000E+00   S
  |    43   0.100000E+01   0.000000E+00   Mo
  |    44   0.100000E+01   0.000000E+00   S
  |    45   0.100000E+01   0.000000E+00   S
  |    46   0.100000E+01   0.000000E+00   Mo
  |    47   0.100000E+01   0.000000E+00   S
  |    48   0.100000E+01   0.000000E+00   S
  |    49   0.100000E+01   0.000000E+00   Mo
  |    50   0.100000E+01   0.000000E+00   S
  |    51   0.100000E+01   0.000000E+00   S
  |    52   0.100000E+01   0.000000E+00   Mo
  |    53   0.100000E+01   0.000000E+00   S
  |    54   0.100000E+01   0.000000E+00   Mo
  |    55   0.100000E+01   0.000000E+00   S
  |    56   0.100000E+01   0.000000E+00   S
  |    57   0.100000E+01   0.000000E+00   Mo
  |    58   0.100000E+01   0.000000E+00   S
  |    59   0.100000E+01   0.000000E+00   S
  |    60   0.100000E+01   0.000000E+00   Mo
  |    61   0.100000E+01   0.000000E+00   S
  |    62   0.100000E+01   0.000000E+00   S
  |    63   0.100000E+01   0.000000E+00   Mo
  |    64   0.100000E+01   0.000000E+00   S
  |    65   0.100000E+01   0.000000E+00   S
  |    66   0.100000E+01   0.000000E+00   Mo
  |    67   0.100000E+01   0.000000E+00   S
  |    68   0.100000E+01   0.000000E+00   S
  |    69   0.100000E+01   0.000000E+00   Mo
  |    70   0.100000E+01   0.000000E+00   S
  |    71   0.100000E+01   0.000000E+00   S
  |    72   0.100000E+01   0.000000E+00   Mo
  |    73   0.100000E+01   0.000000E+00   S
  |    74   0.100000E+01   0.000000E+00   S

 
  Finished reading input file 'control.in'.
 

------------------------------------------------------------
          Reading geometry description geometry.in.
------------------------------------------------------------
 
  Consistency checks for stacksize environment parameter are next.
 
  | Maximum stacksize for task 0: unlimited
  | Maximum stacksize for task 1: unlimited
  | Maximum stacksize for task 2: unlimited
  | Maximum stacksize for task 3: unlimited
  | Maximum stacksize for task 4: unlimited
  | Maximum stacksize for task 5: unlimited
  | Maximum stacksize for task 6: unlimited
  | Maximum stacksize for task 7: unlimited
  | Maximum stacksize for task 8: unlimited
  | Maximum stacksize for task 9: unlimited
  | Maximum stacksize for task 10: unlimited
  | Maximum stacksize for task 11: unlimited
  | Maximum stacksize for task 12: unlimited
  | Maximum stacksize for task 13: unlimited
  | Maximum stacksize for task 14: unlimited
  | Maximum stacksize for task 15: unlimited
  | Maximum stacksize for task 16: unlimited
  | Maximum stacksize for task 17: unlimited
  | Maximum stacksize for task 18: unlimited
  | Maximum stacksize for task 19: unlimited
  | Maximum stacksize for task 20: unlimited
  | Maximum stacksize for task 21: unlimited
  | Maximum stacksize for task 22: unlimited
  | Maximum stacksize for task 23: unlimited
  | Maximum stacksize for task 24: unlimited
  | Maximum stacksize for task 25: unlimited
  | Maximum stacksize for task 26: unlimited
  | Maximum stacksize for task 27: unlimited
  | Maximum stacksize for task 28: unlimited
  | Maximum stacksize for task 29: unlimited
  | Maximum stacksize for task 30: unlimited
  | Maximum stacksize for task 31: unlimited
  | Maximum stacksize for task 32: unlimited
  | Maximum stacksize for task 33: unlimited
  | Maximum stacksize for task 34: unlimited
  | Maximum stacksize for task 35: unlimited
  | Maximum stacksize for task 36: unlimited
  | Maximum stacksize for task 37: unlimited
  | Maximum stacksize for task 38: unlimited
  | Maximum stacksize for task 39: unlimited
  | Maximum stacksize for task 40: unlimited
  | Maximum stacksize for task 41: unlimited
  | Maximum stacksize for task 42: unlimited
  | Maximum stacksize for task 43: unlimited
  | Maximum stacksize for task 44: unlimited
  | Maximum stacksize for task 45: unlimited
  | Maximum stacksize for task 46: unlimited
  | Maximum stacksize for task 47: unlimited
  | Maximum stacksize for task 48: unlimited
  | Maximum stacksize for task 49: unlimited
  | Maximum stacksize for task 50: unlimited
  | Maximum stacksize for task 51: unlimited
  | Maximum stacksize for task 52: unlimited
  | Maximum stacksize for task 53: unlimited
  | Maximum stacksize for task 54: unlimited
  | Maximum stacksize for task 55: unlimited
  | Maximum stacksize for task 56: unlimited
  | Maximum stacksize for task 57: unlimited
  | Maximum stacksize for task 58: unlimited
  | Maximum stacksize for task 59: unlimited
  | Maximum stacksize for task 60: unlimited
  | Maximum stacksize for task 61: unlimited
  | Maximum stacksize for task 62: unlimited
  | Maximum stacksize for task 63: unlimited
  | Maximum stacksize for task 64: unlimited
  | Maximum stacksize for task 65: unlimited
  | Maximum stacksize for task 66: unlimited
  | Maximum stacksize for task 67: unlimited
  | Maximum stacksize for task 68: unlimited
  | Maximum stacksize for task 69: unlimited
  | Maximum stacksize for task 70: unlimited
  | Maximum stacksize for task 71: unlimited
  | Maximum stacksize for task 72: unlimited
  | Maximum stacksize for task 73: unlimited
  | Maximum stacksize for task 74: unlimited
  | Maximum stacksize for task 75: unlimited
  | Maximum stacksize for task 76: unlimited
  | Maximum stacksize for task 77: unlimited
  | Maximum stacksize for task 78: unlimited
  | Maximum stacksize for task 79: unlimited
  | Maximum stacksize for task 80: unlimited
  | Maximum stacksize for task 81: unlimited
  | Maximum stacksize for task 82: unlimited
  | Maximum stacksize for task 83: unlimited
  | Maximum stacksize for task 84: unlimited
  | Maximum stacksize for task 85: unlimited
  | Maximum stacksize for task 86: unlimited
  | Maximum stacksize for task 87: unlimited
  | Maximum stacksize for task 88: unlimited
  | Maximum stacksize for task 89: unlimited
  | Maximum stacksize for task 90: unlimited
  | Maximum stacksize for task 91: unlimited
  | Maximum stacksize for task 92: unlimited
  | Maximum stacksize for task 93: unlimited
  | Maximum stacksize for task 94: unlimited
  | Maximum stacksize for task 95: unlimited
  | Maximum stacksize for task 96: unlimited
  | Maximum stacksize for task 97: unlimited
  | Maximum stacksize for task 98: unlimited
  | Maximum stacksize for task 99: unlimited
  | Maximum stacksize for task 100: unlimited
  | Maximum stacksize for task 101: unlimited
  | Maximum stacksize for task 102: unlimited
  | Maximum stacksize for task 103: unlimited
  | Maximum stacksize for task 104: unlimited
  | Maximum stacksize for task 105: unlimited
  | Maximum stacksize for task 106: unlimited
  | Maximum stacksize for task 107: unlimited
  | Maximum stacksize for task 108: unlimited
  | Maximum stacksize for task 109: unlimited
  | Maximum stacksize for task 110: unlimited
  | Maximum stacksize for task 111: unlimited
  | Maximum stacksize for task 112: unlimited
  | Maximum stacksize for task 113: unlimited
  | Maximum stacksize for task 114: unlimited
  | Maximum stacksize for task 115: unlimited
  | Maximum stacksize for task 116: unlimited
  | Maximum stacksize for task 117: unlimited
  | Maximum stacksize for task 118: unlimited
  | Maximum stacksize for task 119: unlimited
  | Maximum stacksize for task 120: unlimited
  | Maximum stacksize for task 121: unlimited
  | Maximum stacksize for task 122: unlimited
  | Maximum stacksize for task 123: unlimited
  | Maximum stacksize for task 124: unlimited
  | Maximum stacksize for task 125: unlimited
  | Maximum stacksize for task 126: unlimited
  | Maximum stacksize for task 127: unlimited
  | Maximum stacksize for task 128: unlimited
  | Maximum stacksize for task 129: unlimited
  | Maximum stacksize for task 130: unlimited
  | Maximum stacksize for task 131: unlimited
  | Maximum stacksize for task 132: unlimited
  | Maximum stacksize for task 133: unlimited
  | Maximum stacksize for task 134: unlimited
  | Maximum stacksize for task 135: unlimited
  | Maximum stacksize for task 136: unlimited
  | Maximum stacksize for task 137: unlimited
  | Maximum stacksize for task 138: unlimited
  | Maximum stacksize for task 139: unlimited
  | Maximum stacksize for task 140: unlimited
  | Maximum stacksize for task 141: unlimited
  | Maximum stacksize for task 142: unlimited
  | Maximum stacksize for task 143: unlimited
  | Maximum stacksize for task 144: unlimited
  | Maximum stacksize for task 145: unlimited
  | Maximum stacksize for task 146: unlimited
  | Maximum stacksize for task 147: unlimited
  | Maximum stacksize for task 148: unlimited
  | Maximum stacksize for task 149: unlimited
  | Maximum stacksize for task 150: unlimited
  | Maximum stacksize for task 151: unlimited
  | Maximum stacksize for task 152: unlimited
  | Maximum stacksize for task 153: unlimited
  | Maximum stacksize for task 154: unlimited
  | Maximum stacksize for task 155: unlimited
  | Maximum stacksize for task 156: unlimited
  | Maximum stacksize for task 157: unlimited
  | Maximum stacksize for task 158: unlimited
  | Maximum stacksize for task 159: unlimited
  | Maximum stacksize for task 160: unlimited
  | Maximum stacksize for task 161: unlimited
  | Maximum stacksize for task 162: unlimited
  | Maximum stacksize for task 163: unlimited
  | Maximum stacksize for task 164: unlimited
  | Maximum stacksize for task 165: unlimited
  | Maximum stacksize for task 166: unlimited
  | Maximum stacksize for task 167: unlimited
  | Maximum stacksize for task 168: unlimited
  | Maximum stacksize for task 169: unlimited
  | Maximum stacksize for task 170: unlimited
  | Maximum stacksize for task 171: unlimited
  | Maximum stacksize for task 172: unlimited
  | Maximum stacksize for task 173: unlimited
  | Maximum stacksize for task 174: unlimited
  | Maximum stacksize for task 175: unlimited
  | Maximum stacksize for task 176: unlimited
  | Maximum stacksize for task 177: unlimited
  | Maximum stacksize for task 178: unlimited
  | Maximum stacksize for task 179: unlimited
  | Maximum stacksize for task 180: unlimited
  | Maximum stacksize for task 181: unlimited
  | Maximum stacksize for task 182: unlimited
  | Maximum stacksize for task 183: unlimited
  | Maximum stacksize for task 184: unlimited
  | Maximum stacksize for task 185: unlimited
  | Maximum stacksize for task 186: unlimited
  | Maximum stacksize for task 187: unlimited
  | Maximum stacksize for task 188: unlimited
  | Maximum stacksize for task 189: unlimited
  | Maximum stacksize for task 190: unlimited
  | Maximum stacksize for task 191: unlimited
  | Maximum stacksize for task 192: unlimited
  | Maximum stacksize for task 193: unlimited
  | Maximum stacksize for task 194: unlimited
  | Maximum stacksize for task 195: unlimited
  | Maximum stacksize for task 196: unlimited
  | Maximum stacksize for task 197: unlimited
  | Maximum stacksize for task 198: unlimited
  | Maximum stacksize for task 199: unlimited
  | Maximum stacksize for task 200: unlimited
  | Maximum stacksize for task 201: unlimited
  | Maximum stacksize for task 202: unlimited
  | Maximum stacksize for task 203: unlimited
  | Maximum stacksize for task 204: unlimited
  | Maximum stacksize for task 205: unlimited
  | Maximum stacksize for task 206: unlimited
  | Maximum stacksize for task 207: unlimited
  | Maximum stacksize for task 208: unlimited
  | Maximum stacksize for task 209: unlimited
  | Maximum stacksize for task 210: unlimited
  | Maximum stacksize for task 211: unlimited
  | Maximum stacksize for task 212: unlimited
  | Maximum stacksize for task 213: unlimited
  | Maximum stacksize for task 214: unlimited
  | Maximum stacksize for task 215: unlimited
  | Maximum stacksize for task 216: unlimited
  | Maximum stacksize for task 217: unlimited
  | Maximum stacksize for task 218: unlimited
  | Maximum stacksize for task 219: unlimited
  | Maximum stacksize for task 220: unlimited
  | Maximum stacksize for task 221: unlimited
  | Maximum stacksize for task 222: unlimited
  | Maximum stacksize for task 223: unlimited
  | Maximum stacksize for task 224: unlimited
  | Maximum stacksize for task 225: unlimited
  | Maximum stacksize for task 226: unlimited
  | Maximum stacksize for task 227: unlimited
  | Maximum stacksize for task 228: unlimited
  | Maximum stacksize for task 229: unlimited
  | Maximum stacksize for task 230: unlimited
  | Maximum stacksize for task 231: unlimited
  | Maximum stacksize for task 232: unlimited
  | Maximum stacksize for task 233: unlimited
  | Maximum stacksize for task 234: unlimited
  | Maximum stacksize for task 235: unlimited
  | Maximum stacksize for task 236: unlimited
  | Maximum stacksize for task 237: unlimited
  | Maximum stacksize for task 238: unlimited
  | Maximum stacksize for task 239: unlimited
  | Maximum stacksize for task 240: unlimited
  | Maximum stacksize for task 241: unlimited
  | Maximum stacksize for task 242: unlimited
  | Maximum stacksize for task 243: unlimited
  | Maximum stacksize for task 244: unlimited
  | Maximum stacksize for task 245: unlimited
  | Maximum stacksize for task 246: unlimited
  | Maximum stacksize for task 247: unlimited
  | Maximum stacksize for task 248: unlimited
  | Maximum stacksize for task 249: unlimited
  | Maximum stacksize for task 250: unlimited
  | Maximum stacksize for task 251: unlimited
  | Maximum stacksize for task 252: unlimited
  | Maximum stacksize for task 253: unlimited
  | Maximum stacksize for task 254: unlimited
  | Maximum stacksize for task 255: unlimited
  | Maximum stacksize for task 256: unlimited
  | Maximum stacksize for task 257: unlimited
  | Maximum stacksize for task 258: unlimited
  | Maximum stacksize for task 259: unlimited
  | Maximum stacksize for task 260: unlimited
  | Maximum stacksize for task 261: unlimited
  | Maximum stacksize for task 262: unlimited
  | Maximum stacksize for task 263: unlimited
  | Maximum stacksize for task 264: unlimited
  | Maximum stacksize for task 265: unlimited
  | Maximum stacksize for task 266: unlimited
  | Maximum stacksize for task 267: unlimited
  | Maximum stacksize for task 268: unlimited
  | Maximum stacksize for task 269: unlimited
  | Maximum stacksize for task 270: unlimited
  | Maximum stacksize for task 271: unlimited
  | Maximum stacksize for task 272: unlimited
  | Maximum stacksize for task 273: unlimited
  | Maximum stacksize for task 274: unlimited
  | Maximum stacksize for task 275: unlimited
  | Maximum stacksize for task 276: unlimited
  | Maximum stacksize for task 277: unlimited
  | Maximum stacksize for task 278: unlimited
  | Maximum stacksize for task 279: unlimited
  | Maximum stacksize for task 280: unlimited
  | Maximum stacksize for task 281: unlimited
  | Maximum stacksize for task 282: unlimited
  | Maximum stacksize for task 283: unlimited
  | Maximum stacksize for task 284: unlimited
  | Maximum stacksize for task 285: unlimited
  | Maximum stacksize for task 286: unlimited
  | Maximum stacksize for task 287: unlimited
  | Current stacksize for task 0: unlimited
  | Current stacksize for task 1: unlimited
  | Current stacksize for task 2: unlimited
  | Current stacksize for task 3: unlimited
  | Current stacksize for task 4: unlimited
  | Current stacksize for task 5: unlimited
  | Current stacksize for task 6: unlimited
  | Current stacksize for task 7: unlimited
  | Current stacksize for task 8: unlimited
  | Current stacksize for task 9: unlimited
  | Current stacksize for task 10: unlimited
  | Current stacksize for task 11: unlimited
  | Current stacksize for task 12: unlimited
  | Current stacksize for task 13: unlimited
  | Current stacksize for task 14: unlimited
  | Current stacksize for task 15: unlimited
  | Current stacksize for task 16: unlimited
  | Current stacksize for task 17: unlimited
  | Current stacksize for task 18: unlimited
  | Current stacksize for task 19: unlimited
  | Current stacksize for task 20: unlimited
  | Current stacksize for task 21: unlimited
  | Current stacksize for task 22: unlimited
  | Current stacksize for task 23: unlimited
  | Current stacksize for task 24: unlimited
  | Current stacksize for task 25: unlimited
  | Current stacksize for task 26: unlimited
  | Current stacksize for task 27: unlimited
  | Current stacksize for task 28: unlimited
  | Current stacksize for task 29: unlimited
  | Current stacksize for task 30: unlimited
  | Current stacksize for task 31: unlimited
  | Current stacksize for task 32: unlimited
  | Current stacksize for task 33: unlimited
  | Current stacksize for task 34: unlimited
  | Current stacksize for task 35: unlimited
  | Current stacksize for task 36: unlimited
  | Current stacksize for task 37: unlimited
  | Current stacksize for task 38: unlimited
  | Current stacksize for task 39: unlimited
  | Current stacksize for task 40: unlimited
  | Current stacksize for task 41: unlimited
  | Current stacksize for task 42: unlimited
  | Current stacksize for task 43: unlimited
  | Current stacksize for task 44: unlimited
  | Current stacksize for task 45: unlimited
  | Current stacksize for task 46: unlimited
  | Current stacksize for task 47: unlimited
  | Current stacksize for task 48: unlimited
  | Current stacksize for task 49: unlimited
  | Current stacksize for task 50: unlimited
  | Current stacksize for task 51: unlimited
  | Current stacksize for task 52: unlimited
  | Current stacksize for task 53: unlimited
  | Current stacksize for task 54: unlimited
  | Current stacksize for task 55: unlimited
  | Current stacksize for task 56: unlimited
  | Current stacksize for task 57: unlimited
  | Current stacksize for task 58: unlimited
  | Current stacksize for task 59: unlimited
  | Current stacksize for task 60: unlimited
  | Current stacksize for task 61: unlimited
  | Current stacksize for task 62: unlimited
  | Current stacksize for task 63: unlimited
  | Current stacksize for task 64: unlimited
  | Current stacksize for task 65: unlimited
  | Current stacksize for task 66: unlimited
  | Current stacksize for task 67: unlimited
  | Current stacksize for task 68: unlimited
  | Current stacksize for task 69: unlimited
  | Current stacksize for task 70: unlimited
  | Current stacksize for task 71: unlimited
  | Current stacksize for task 72: unlimited
  | Current stacksize for task 73: unlimited
  | Current stacksize for task 74: unlimited
  | Current stacksize for task 75: unlimited
  | Current stacksize for task 76: unlimited
  | Current stacksize for task 77: unlimited
  | Current stacksize for task 78: unlimited
  | Current stacksize for task 79: unlimited
  | Current stacksize for task 80: unlimited
  | Current stacksize for task 81: unlimited
  | Current stacksize for task 82: unlimited
  | Current stacksize for task 83: unlimited
  | Current stacksize for task 84: unlimited
  | Current stacksize for task 85: unlimited
  | Current stacksize for task 86: unlimited
  | Current stacksize for task 87: unlimited
  | Current stacksize for task 88: unlimited
  | Current stacksize for task 89: unlimited
  | Current stacksize for task 90: unlimited
  | Current stacksize for task 91: unlimited
  | Current stacksize for task 92: unlimited
  | Current stacksize for task 93: unlimited
  | Current stacksize for task 94: unlimited
  | Current stacksize for task 95: unlimited
  | Current stacksize for task 96: unlimited
  | Current stacksize for task 97: unlimited
  | Current stacksize for task 98: unlimited
  | Current stacksize for task 99: unlimited
  | Current stacksize for task 100: unlimited
  | Current stacksize for task 101: unlimited
  | Current stacksize for task 102: unlimited
  | Current stacksize for task 103: unlimited
  | Current stacksize for task 104: unlimited
  | Current stacksize for task 105: unlimited
  | Current stacksize for task 106: unlimited
  | Current stacksize for task 107: unlimited
  | Current stacksize for task 108: unlimited
  | Current stacksize for task 109: unlimited
  | Current stacksize for task 110: unlimited
  | Current stacksize for task 111: unlimited
  | Current stacksize for task 112: unlimited
  | Current stacksize for task 113: unlimited
  | Current stacksize for task 114: unlimited
  | Current stacksize for task 115: unlimited
  | Current stacksize for task 116: unlimited
  | Current stacksize for task 117: unlimited
  | Current stacksize for task 118: unlimited
  | Current stacksize for task 119: unlimited
  | Current stacksize for task 120: unlimited
  | Current stacksize for task 121: unlimited
  | Current stacksize for task 122: unlimited
  | Current stacksize for task 123: unlimited
  | Current stacksize for task 124: unlimited
  | Current stacksize for task 125: unlimited
[...]
  | writing   projected DOS (shifted by the chemical potential) for species S to file atom_proj_dos_tetrahedron_S0026.dat.
  | writing   projected DOS (raw data) for species S to file atom_proj_dos_tetrahedron_S0026_raw.dat.
  | writing   projected DOS (shifted by the chemical potential) for species S to file atom_proj_dos_tetrahedron_S0027.dat.
  | writing   projected DOS (raw data) for species S to file atom_proj_dos_tetrahedron_S0027_raw.dat.
  | writing   projected DOS (shifted by the chemical potential) for species Mo to file atom_proj_dos_tetrahedron_Mo0028.dat.
  | writing   projected DOS (raw data) for species Mo to file atom_proj_dos_tetrahedron_Mo0028_raw.dat.
  | writing   projected DOS (shifted by the chemical potential) for species S to file atom_proj_dos_tetrahedron_S0029.dat.
  | writing   projected DOS (raw data) for species S to file atom_proj_dos_tetrahedron_S0029_raw.dat.
  | writing   projected DOS (shifted by the chemical potential) for species S to file atom_proj_dos_tetrahedron_S0030.dat.
  | writing   projected DOS (raw data) for species S to file atom_proj_dos_tetrahedron_S0030_raw.dat.
  | writing   projected DOS (shifted by the chemical potential) for species Mo to file atom_proj_dos_tetrahedron_Mo0031.dat.
  | writing   projected DOS (raw data) for species Mo to file atom_proj_dos_tetrahedron_Mo0031_raw.dat.
  | writing   projected DOS (shifted by the chemical potential) for species S to file atom_proj_dos_tetrahedron_S0032.dat.
  | writing   projected DOS (raw data) for species S to file atom_proj_dos_tetrahedron_S0032_raw.dat.
  | writing   projected DOS (shifted by the chemical potential) for species S to file atom_proj_dos_tetrahedron_S0033.dat.
  | writing   projected DOS (raw data) for species S to file atom_proj_dos_tetrahedron_S0033_raw.dat.
  | writing   projected DOS (shifted by the chemical potential) for species Mo to file atom_proj_dos_tetrahedron_Mo0034.dat.
  | writing   projected DOS (raw data) for species Mo to file atom_proj_dos_tetrahedron_Mo0034_raw.dat.
  | writing   projected DOS (shifted by the chemical potential) for species S to file atom_proj_dos_tetrahedron_S0035.dat.
  | writing   projected DOS (raw data) for species S to file atom_proj_dos_tetrahedron_S0035_raw.dat.
  | writing   projected DOS (shifted by the chemical potential) for species S to file atom_proj_dos_tetrahedron_S0036.dat.
  | writing   projected DOS (raw data) for species S to file atom_proj_dos_tetrahedron_S0036_raw.dat.
  | writing   projected DOS (shifted by the chemical potential) for species Mo to file atom_proj_dos_tetrahedron_Mo0037.dat.
  | writing   projected DOS (raw data) for species Mo to file atom_proj_dos_tetrahedron_Mo0037_raw.dat.
  | writing   projected DOS (shifted by the chemical potential) for species S to file atom_proj_dos_tetrahedron_S0038.dat.
  | writing   projected DOS (raw data) for species S to file atom_proj_dos_tetrahedron_S0038_raw.dat.
  | writing   projected DOS (shifted by the chemical potential) for species S to file atom_proj_dos_tetrahedron_S0039.dat.
  | writing   projected DOS (raw data) for species S to file atom_proj_dos_tetrahedron_S0039_raw.dat.
  | writing   projected DOS (shifted by the chemical potential) for species Mo to file atom_proj_dos_tetrahedron_Mo0040.dat.
  | writing   projected DOS (raw data) for species Mo to file atom_proj_dos_tetrahedron_Mo0040_raw.dat.
  | writing   projected DOS (shifted by the chemical potential) for species S to file atom_proj_dos_tetrahedron_S0041.dat.
  | writing   projected DOS (raw data) for species S to file atom_proj_dos_tetrahedron_S0041_raw.dat.
  | writing   projected DOS (shifted by the chemical potential) for species S to file atom_proj_dos_tetrahedron_S0042.dat.
  | writing   projected DOS (raw data) for species S to file atom_proj_dos_tetrahedron_S0042_raw.dat.
  | writing   projected DOS (shifted by the chemical potential) for species Mo to file atom_proj_dos_tetrahedron_Mo0043.dat.
  | writing   projected DOS (raw data) for species Mo to file atom_proj_dos_tetrahedron_Mo0043_raw.dat.
  | writing   projected DOS (shifted by the chemical potential) for species S to file atom_proj_dos_tetrahedron_S0044.dat.
  | writing   projected DOS (raw data) for species S to file atom_proj_dos_tetrahedron_S0044_raw.dat.
  | writing   projected DOS (shifted by the chemical potential) for species S to file atom_proj_dos_tetrahedron_S0045.dat.
  | writing   projected DOS (raw data) for species S to file atom_proj_dos_tetrahedron_S0045_raw.dat.
  | writing   projected DOS (shifted by the chemical potential) for species Mo to file atom_proj_dos_tetrahedron_Mo0046.dat.
  | writing   projected DOS (raw data) for species Mo to file atom_proj_dos_tetrahedron_Mo0046_raw.dat.
  | writing   projected DOS (shifted by the chemical potential) for species S to file atom_proj_dos_tetrahedron_S0047.dat.
  | writing   projected DOS (raw data) for species S to file atom_proj_dos_tetrahedron_S0047_raw.dat.
  | writing   projected DOS (shifted by the chemical potential) for species S to file atom_proj_dos_tetrahedron_S0048.dat.
  | writing   projected DOS (raw data) for species S to file atom_proj_dos_tetrahedron_S0048_raw.dat.
  | writing   projected DOS (shifted by the chemical potential) for species Mo to file atom_proj_dos_tetrahedron_Mo0049.dat.
  | writing   projected DOS (raw data) for species Mo to file atom_proj_dos_tetrahedron_Mo0049_raw.dat.
  | writing   projected DOS (shifted by the chemical potential) for species S to file atom_proj_dos_tetrahedron_S0050.dat.
  | writing   projected DOS (raw data) for species S to file atom_proj_dos_tetrahedron_S0050_raw.dat.
  | writing   projected DOS (shifted by the chemical potential) for species S to file atom_proj_dos_tetrahedron_S0051.dat.
  | writing   projected DOS (raw data) for species S to file atom_proj_dos_tetrahedron_S0051_raw.dat.
  | writing   projected DOS (shifted by the chemical potential) for species Mo to file atom_proj_dos_tetrahedron_Mo0052.dat.
  | writing   projected DOS (raw data) for species Mo to file atom_proj_dos_tetrahedron_Mo0052_raw.dat.
  | writing   projected DOS (shifted by the chemical potential) for species S to file atom_proj_dos_tetrahedron_S0053.dat.
  | writing   projected DOS (raw data) for species S to file atom_proj_dos_tetrahedron_S0053_raw.dat.
  | writing   projected DOS (shifted by the chemical potential) for species Mo to file atom_proj_dos_tetrahedron_Mo0054.dat.
  | writing   projected DOS (raw data) for species Mo to file atom_proj_dos_tetrahedron_Mo0054_raw.dat.
  | writing   projected DOS (shifted by the chemical potential) for species S to file atom_proj_dos_tetrahedron_S0055.dat.
  | writing   projected DOS (raw data) for species S to file atom_proj_dos_tetrahedron_S0055_raw.dat.
  | writing   projected DOS (shifted by the chemical potential) for species S to file atom_proj_dos_tetrahedron_S0056.dat.
  | writing   projected DOS (raw data) for species S to file atom_proj_dos_tetrahedron_S0056_raw.dat.
  | writing   projected DOS (shifted by the chemical potential) for species Mo to file atom_proj_dos_tetrahedron_Mo0057.dat.
  | writing   projected DOS (raw data) for species Mo to file atom_proj_dos_tetrahedron_Mo0057_raw.dat.
  | writing   projected DOS (shifted by the chemical potential) for species S to file atom_proj_dos_tetrahedron_S0058.dat.
  | writing   projected DOS (raw data) for species S to file atom_proj_dos_tetrahedron_S0058_raw.dat.
  | writing   projected DOS (shifted by the chemical potential) for species S to file atom_proj_dos_tetrahedron_S0059.dat.
  | writing   projected DOS (raw data) for species S to file atom_proj_dos_tetrahedron_S0059_raw.dat.
  | writing   projected DOS (shifted by the chemical potential) for species Mo to file atom_proj_dos_tetrahedron_Mo0060.dat.
  | writing   projected DOS (raw data) for species Mo to file atom_proj_dos_tetrahedron_Mo0060_raw.dat.
  | writing   projected DOS (shifted by the chemical potential) for species S to file atom_proj_dos_tetrahedron_S0061.dat.
  | writing   projected DOS (raw data) for species S to file atom_proj_dos_tetrahedron_S0061_raw.dat.
  | writing   projected DOS (shifted by the chemical potential) for species S to file atom_proj_dos_tetrahedron_S0062.dat.
  | writing   projected DOS (raw data) for species S to file atom_proj_dos_tetrahedron_S0062_raw.dat.
  | writing   projected DOS (shifted by the chemical potential) for species Mo to file atom_proj_dos_tetrahedron_Mo0063.dat.
  | writing   projected DOS (raw data) for species Mo to file atom_proj_dos_tetrahedron_Mo0063_raw.dat.
  | writing   projected DOS (shifted by the chemical potential) for species S to file atom_proj_dos_tetrahedron_S0064.dat.
  | writing   projected DOS (raw data) for species S to file atom_proj_dos_tetrahedron_S0064_raw.dat.
  | writing   projected DOS (shifted by the chemical potential) for species S to file atom_proj_dos_tetrahedron_S0065.dat.
  | writing   projected DOS (raw data) for species S to file atom_proj_dos_tetrahedron_S0065_raw.dat.
  | writing   projected DOS (shifted by the chemical potential) for species Mo to file atom_proj_dos_tetrahedron_Mo0066.dat.
  | writing   projected DOS (raw data) for species Mo to file atom_proj_dos_tetrahedron_Mo0066_raw.dat.
  | writing   projected DOS (shifted by the chemical potential) for species S to file atom_proj_dos_tetrahedron_S0067.dat.
  | writing   projected DOS (raw data) for species S to file atom_proj_dos_tetrahedron_S0067_raw.dat.
  | writing   projected DOS (shifted by the chemical potential) for species S to file atom_proj_dos_tetrahedron_S0068.dat.
  | writing   projected DOS (raw data) for species S to file atom_proj_dos_tetrahedron_S0068_raw.dat.
  | writing   projected DOS (shifted by the chemical potential) for species Mo to file atom_proj_dos_tetrahedron_Mo0069.dat.
  | writing   projected DOS (raw data) for species Mo to file atom_proj_dos_tetrahedron_Mo0069_raw.dat.
  | writing   projected DOS (shifted by the chemical potential) for species S to file atom_proj_dos_tetrahedron_S0070.dat.
  | writing   projected DOS (raw data) for species S to file atom_proj_dos_tetrahedron_S0070_raw.dat.
  | writing   projected DOS (shifted by the chemical potential) for species S to file atom_proj_dos_tetrahedron_S0071.dat.
  | writing   projected DOS (raw data) for species S to file atom_proj_dos_tetrahedron_S0071_raw.dat.
  | writing   projected DOS (shifted by the chemical potential) for species Mo to file atom_proj_dos_tetrahedron_Mo0072.dat.
  | writing   projected DOS (raw data) for species Mo to file atom_proj_dos_tetrahedron_Mo0072_raw.dat.
  | writing   projected DOS (shifted by the chemical potential) for species S to file atom_proj_dos_tetrahedron_S0073.dat.
  | writing   projected DOS (raw data) for species S to file atom_proj_dos_tetrahedron_S0073_raw.dat.
  | writing   projected DOS (shifted by the chemical potential) for species S to file atom_proj_dos_tetrahedron_S0074.dat.
  | writing   projected DOS (raw data) for species S to file atom_proj_dos_tetrahedron_S0074_raw.dat.

  Mulliken analysis                                       :  max(cpu_time)    wall_clock(cpu1)
  | Time for Mulliken analysis (scalar relativistic)      :          3.647               4.086
  | Time for Mulliken analysis (spin-orbit coupled)       :          2.553               2.682
  | Total time for Mulliken analysis                      :          6.201               6.768
------------------------------------------------------------

------------------------------------------------------------------------------
  Final output of selected total energy values:

  The following output summarizes some interesting total energy values
  at the end of a run (AFTER all relaxation, molecular dynamics, etc.).

  | Total energy of the DFT / Hartree-Fock s.c.f. calculation      :       -3314119.601105114 eV
  | Final zero-broadening corrected energy (caution - metals only) :       -3314119.601105114 eV
  | Total energy after non-SC SOC correction (DO NOT USE)          :       -3314120.877705330 eV
  | For reference only, the value of 1 Hartree used in FHI-aims is :             27.211384500 eV
  | For reference only, the overall average (free atom contribution
  | + realspace contribution) of the electrostatic potential after
  | s.c.f. convergence is                                          :             -1.090617329 eV

  Before relying on these values, please be sure to understand exactly which
  total energy value is referred to by a given number. Different objects may
  all carry the same name 'total energy'. Definitions:

  Total energy of the DFT / Hartree-Fock s.c.f. calculation:
  | Note that this energy does not include ANY quantities calculated after the
  | s.c.f. cycle, in particular not ANY RPA, MP2, etc. many-body perturbation terms.

  Final zero-broadening corrected energy:
  | For metallic systems only, a broadening of the occupation numbers at the Fermi
  | level can be extrapolated back to zero broadening by an electron-gas inspired
  | formula. For all systems that are not real metals, this value can be
  | meaningless and should be avoided.

------------------------------------------------------------------------------
  Methods described in the following list of references were used in this FHI-aims run.
  If you publish the results, please make sure to cite these reference if they apply.
  FHI-aims is an academic code, and for our developers (often, Ph.D. students
  and postdocs), scientific credit in the community is essential.
  Thank you for helping us!

  For any use of FHI-aims, please cite:

    Volker Blum, Ralf Gehrke, Felix Hanke, Paula Havu, Ville Havu,
    Xinguo Ren, Karsten Reuter, and Matthias Scheffler
    'Ab initio molecular simulations with numeric atom-centered orbitals'
    Computer Physics Communications 180, 2175-2196 (2009)
    http://doi.org/10.1016/j.cpc.2009.06.022


  For Hartree-Fock, hybrid functionals, or many-body perturbation theory used in your run, please cite:

    Xinguo Ren, Patrick Rinke, Volker Blum, Juergen Wieferink, Alex Tkatchenko,
    Andrea Sanfilippo, Karsten Reuter, and Matthias Scheffler,
    'Resolution-of-identity approach to Hartree-Fock, hybrid density functionals,
    RPA, MP2, and GW with numeric atom-centered orbital basis functions'
    New Journal of Physics 14, 053020 (2012).
    http://doi.org/10.1088/1367-2630/14/5/053020


  The provided symmetry information was generated with SPGlib:

    Atsushi Togo, Yusuke Seto, Dimitar Pashov
    SPGlib 1.7.3 obtained from http://spglib.sourceforge.net
    Copyright (C) 2008 Atsushi Togo


  For second-variational spin-orbit coupling used in your run, please cite:

    William P. Huhn and Volker Blum,
    'One-hundred-three compound band-structure benchmark of post-self-consistent'
    'spin-orbit coupling treatments in density functional theory'
    Phys. Rev. Materials 1, 033803 (2017).


  The ELSI infrastructure was used in your run to solve the Kohn-Sham electronic structure.
  Please check out http://elsi-interchange.org to learn more.
  If scalability is important for your project, please acknowledge ELSI by citing:

    V. W-z. Yu, F. Corsetti, A. Garcia, W. P. Huhn, M. Jacquelin, W. Jia,
    B. Lange, L. Lin, J. Lu, W. Mi, A. Seifitokaldani, A. Vazquez-Mayagoitia,
    C. Yang, H. Yang, and V. Blum
    'ELSI: A unified software interface for Kohn-Sham electronic structure solvers'
    Computer Physics Communications 222, 267-285 (2018).
    http://doi.org/10.1016/j.cpc.2017.09.007


  For the real-space grid partitioning and parallelization used in this calculation, please cite:

    Ville Havu, Volker Blum, Paula Havu, and Matthias Scheffler,
    'Efficient O(N) integration for all-electron electronic structure calculation'
    'using numerically tabulated basis functions'
    Journal of Computational Physics 228, 8367-8379 (2009).
    http://doi.org/10.1016/j.jcp.2009.08.008


  The high-level electronic structure method used in your calculation
  employed our efficient localized resolution of identity for the Coulomb operator.
  Some calculations, especially large-scale hybrid density functional theory,
  are only possible thanks to this development. For this feature, please cite:

    Arvid Ihrig, Juergen Wieferink, Igor Ying Zhang, Matti Ropo, Xinguo Ren,
    Patrick Rinke, Matthias Scheffler, and Volker Blum,
    'Accurate localized resolution of identity approach for linear-scaling
    hybrid density functionals and for many-body perturbation theory'
    New Journal of Physics 117, 093020 (2015).
    http://doi.org/10.1088/1367-2630/17/9/093020

  Of course, there are many other important community references, e.g., those cited in the
  above references. Our list is limited to references that describe implementations in the
  FHI-aims code. The reason is purely practical (length of this list) - please credit others as well.

------------------------------------------------------------
          Leaving FHI-aims.
          Date     :  20220209, Time     :  132004.208

          Computational steps:
          | Number of self-consistency cycles          :           29
          | Number of SCF (re)initializations          :            1

          Detailed time accounting                     :  max(cpu_time)    wall_clock(cpu1)
          | Total time                                  :     2317.685 s        2317.727 s
          | Preparation time                            :        1.386 s           1.378 s
          | Boundary condition initalization            :        0.767 s           0.768 s
          | Grid partitioning                           :        1.970 s           1.953 s
          | Preloading free-atom quantities on grid     :        1.308 s           1.313 s
          | Free-atom superposition energy              :        0.045 s           0.044 s
          | Total time for integrations                 :       36.195 s          36.198 s
          | Product basis setup: Total time             :       82.015 s          82.019 s
          | Total time evaluating exchange matrix       :     2001.416 s        2000.970 s
          | Total time for solution of K.-S. equations  :       69.993 s          69.999 s
          | Total time for density update               :       71.926 s          71.922 s
          | Total time for mixing                       :        0.324 s           0.174 s
          | Total time for Hartree multipole update     :        0.346 s           0.349 s
          | Total time for Hartree multipole sum        :       29.345 s          29.349 s
          | Total time for total energy evaluation      :        0.050 s           0.054 s
          | Total time for scaled ZORA corrections      :        0.000 s           0.000 s
          | Total time for vdW correction               :        3.970 s           3.967 s
          | Total time for perturbative SOC             :        8.928 s           8.929 s
          | Total time for Mulliken analysis            :        6.201 s           6.768 s

          Partial memory accounting:
          | Residual value for overall tracked memory usage across tasks:     0.000000 MB (should be 0.000000 MB)
          | Peak values for overall tracked memory usage:
          |   Minimum:      293.948 MB (on task 248 after allocating potential_shell)
          |   Maximum:      347.659 MB (on task 264 after allocating potential_shell)
          |   Average:      311.950 MB
          | Largest tracked array allocation:
          |   Minimum:       82.301 MB (ovlp3fn for atom on task 224)
          |   Maximum:      135.358 MB (ovlp3fn for atom on task 264)
          |   Average:       99.665 MB
          Note:  These values currently only include a subset of arrays which are explicitly tracked.
          The "true" memory usage will be greater.

          Have a nice day.
------------------------------------------------------------
