------------------------------------------------------------
          Invoking FHI-aims ...

          When using FHI-aims, please cite the following reference:

            Volker Blum, Ralf Gehrke, Felix Hanke, Paula Havu,
            Ville Havu, Xinguo Ren, Karsten Reuter, and Matthias Scheffler,
            'Ab Initio Molecular Simulations with Numeric Atom-Centered Orbitals',
            Computer Physics Communications 180, 2175-2196 (2009)

          In addition, many other developments in FHI-aims are likely important for
          your particular application. A partial list of references is given at the end of
          this file. Thank you for giving credit to the authors of these developments.

          For any questions about FHI-aims, please visit our slack channel at

            https://fhi-aims.slack.com

          and our main development and support site at

            https://aims-git.rz-berlin.mpg.de .

          The latter site, in particular, has a wiki to collect information, as well
          as an issue tracker to log discussions, suggest improvements, and report issues
          or bugs. https://aims-git.rz-berlin.mpg.de is also the main development site
          of the project and all new and updated code versions can be obtained there.
          Please send an email to aims-coordinators@fhi-berlin.mpg.de and we will add
          you to these sites. They are for you and everyone is welcome there.

------------------------------------------------------------



  Date     :  20220216, Time     :  064759.872
  Time zero on CPU 1             :   0.712816000000000E+00  s.
  Internal wall clock time zero  :           414226079.872  s.

  FHI-aims created a unique identifier for this run for later identification
  aims_uuid : 58613030-52D8-4100-A729-389818BA392C

  Build configuration of the current instance of FHI-aims
  -------------------------------------------------------
  FHI-aims version      : 220208
  Commit number         : f4a9b4d18
  CMake host system     : Linux-4.12.14-122.88-default
  CMake version         : 3.22.0
  Fortran compiler      : /mpcdf/soft/SLE_12/packages/x86_64/intel_oneapi/2021.3/mpi/2021.3.0/bin/mpiifort (Intel) version 2021.3.0.20210609
  Fortran compiler flags: -O3 -ip -fp-model precise
  C compiler            : /mpcdf/soft/SLE_12/packages/x86_64/intel/2021.3.0/bin/icc (Intel) version 2021.3.0.20210609
  C compiler flags      : -O3 -ip -fp-model precise
  C++ compiler          : /mpcdf/soft/SLE_12/packages/x86_64/intel/2021.3.0/bin/icpc (Intel) version 2021.3.0.20210609
  C++ compiler flags    : -O3 -ip -fp-model precise -std=gnu99
  Using MPI
  Using ScaLAPACK
  Using LibXC
  Using i-PI
  Using RLSY
  Linking against: /mpcdf/soft/SLE_12/packages/x86_64/intel_oneapi/2021.3/mkl/latest/lib/intel64/libmkl_intel_lp64.so
                   /mpcdf/soft/SLE_12/packages/x86_64/intel_oneapi/2021.3/mkl/latest/lib/intel64/libmkl_sequential.so
                   /mpcdf/soft/SLE_12/packages/x86_64/intel_oneapi/2021.3/mkl/latest/lib/intel64/libmkl_core.so
                   /mpcdf/soft/SLE_12/packages/x86_64/intel_oneapi/2021.3/mkl/latest/lib/intel64/libmkl_blacs_intelmpi_lp64.so
                   /mpcdf/soft/SLE_12/packages/x86_64/intel_oneapi/2021.3/mkl/latest/lib/intel64/libmkl_scalapack_lp64.so

  Using      160 parallel tasks.
  Task        0 on host co6620 reporting.
  Task        1 on host co6620 reporting.
  Task        2 on host co6620 reporting.
  Task        3 on host co6620 reporting.
  Task        4 on host co6620 reporting.
  Task        5 on host co6620 reporting.
  Task        6 on host co6620 reporting.
  Task        7 on host co6620 reporting.
  Task        8 on host co6620 reporting.
  Task        9 on host co6620 reporting.
  Task       10 on host co6620 reporting.
  Task       11 on host co6620 reporting.
  Task       12 on host co6620 reporting.
  Task       13 on host co6620 reporting.
  Task       14 on host co6620 reporting.
  Task       15 on host co6620 reporting.
  Task       16 on host co6620 reporting.
  Task       17 on host co6620 reporting.
  Task       18 on host co6620 reporting.
  Task       19 on host co6620 reporting.
  Task       20 on host co6620 reporting.
  Task       21 on host co6620 reporting.
  Task       22 on host co6620 reporting.
  Task       23 on host co6620 reporting.
  Task       24 on host co6620 reporting.
  Task       25 on host co6620 reporting.
  Task       26 on host co6620 reporting.
  Task       27 on host co6620 reporting.
  Task       28 on host co6620 reporting.
  Task       29 on host co6620 reporting.
  Task       30 on host co6620 reporting.
  Task       31 on host co6620 reporting.
  Task       32 on host co6620 reporting.
  Task       33 on host co6620 reporting.
  Task       34 on host co6620 reporting.
  Task       35 on host co6620 reporting.
  Task       36 on host co6620 reporting.
  Task       37 on host co6620 reporting.
  Task       38 on host co6620 reporting.
  Task       39 on host co6620 reporting.
  Task       40 on host co6621 reporting.
  Task       41 on host co6621 reporting.
  Task       42 on host co6621 reporting.
  Task       43 on host co6621 reporting.
  Task       44 on host co6621 reporting.
  Task       45 on host co6621 reporting.
  Task       46 on host co6621 reporting.
  Task       47 on host co6621 reporting.
  Task       48 on host co6621 reporting.
  Task       49 on host co6621 reporting.
  Task       50 on host co6621 reporting.
  Task       51 on host co6621 reporting.
  Task       52 on host co6621 reporting.
  Task       53 on host co6621 reporting.
  Task       54 on host co6621 reporting.
  Task       55 on host co6621 reporting.
  Task       56 on host co6621 reporting.
  Task       57 on host co6621 reporting.
  Task       58 on host co6621 reporting.
  Task       59 on host co6621 reporting.
  Task       60 on host co6621 reporting.
  Task       61 on host co6621 reporting.
  Task       62 on host co6621 reporting.
  Task       63 on host co6621 reporting.
  Task       64 on host co6621 reporting.
  Task       65 on host co6621 reporting.
  Task       66 on host co6621 reporting.
  Task       67 on host co6621 reporting.
  Task       68 on host co6621 reporting.
  Task       69 on host co6621 reporting.
  Task       70 on host co6621 reporting.
  Task       71 on host co6621 reporting.
  Task       72 on host co6621 reporting.
  Task       73 on host co6621 reporting.
  Task       74 on host co6621 reporting.
  Task       75 on host co6621 reporting.
  Task       76 on host co6621 reporting.
  Task       77 on host co6621 reporting.
  Task       78 on host co6621 reporting.
  Task       79 on host co6621 reporting.
  Task       80 on host co6625 reporting.
  Task       81 on host co6625 reporting.
  Task       82 on host co6625 reporting.
  Task       83 on host co6625 reporting.
  Task       84 on host co6625 reporting.
  Task       85 on host co6625 reporting.
  Task       86 on host co6625 reporting.
  Task       87 on host co6625 reporting.
  Task       88 on host co6625 reporting.
  Task       89 on host co6625 reporting.
  Task       90 on host co6625 reporting.
  Task       91 on host co6625 reporting.
  Task       92 on host co6625 reporting.
  Task       93 on host co6625 reporting.
  Task       94 on host co6625 reporting.
  Task       95 on host co6625 reporting.
  Task       96 on host co6625 reporting.
  Task       97 on host co6625 reporting.
  Task       98 on host co6625 reporting.
  Task       99 on host co6625 reporting.
  Task      100 on host co6625 reporting.
  Task      101 on host co6625 reporting.
  Task      102 on host co6625 reporting.
  Task      103 on host co6625 reporting.
  Task      104 on host co6625 reporting.
  Task      105 on host co6625 reporting.
  Task      106 on host co6625 reporting.
  Task      107 on host co6625 reporting.
  Task      108 on host co6625 reporting.
  Task      109 on host co6625 reporting.
  Task      110 on host co6625 reporting.
  Task      111 on host co6625 reporting.
  Task      112 on host co6625 reporting.
  Task      113 on host co6625 reporting.
  Task      114 on host co6625 reporting.
  Task      115 on host co6625 reporting.
  Task      116 on host co6625 reporting.
  Task      117 on host co6625 reporting.
  Task      118 on host co6625 reporting.
  Task      119 on host co6625 reporting.
  Task      120 on host co6633 reporting.
  Task      121 on host co6633 reporting.
  Task      122 on host co6633 reporting.
  Task      123 on host co6633 reporting.
  Task      124 on host co6633 reporting.
  Task      125 on host co6633 reporting.
  Task      126 on host co6633 reporting.
  Task      127 on host co6633 reporting.
  Task      128 on host co6633 reporting.
  Task      129 on host co6633 reporting.
  Task      130 on host co6633 reporting.
  Task      131 on host co6633 reporting.
  Task      132 on host co6633 reporting.
  Task      133 on host co6633 reporting.
  Task      134 on host co6633 reporting.
  Task      135 on host co6633 reporting.
  Task      136 on host co6633 reporting.
  Task      137 on host co6633 reporting.
  Task      138 on host co6633 reporting.
  Task      139 on host co6633 reporting.
  Task      140 on host co6633 reporting.
  Task      141 on host co6633 reporting.
  Task      142 on host co6633 reporting.
  Task      143 on host co6633 reporting.
  Task      144 on host co6633 reporting.
  Task      145 on host co6633 reporting.
  Task      146 on host co6633 reporting.
  Task      147 on host co6633 reporting.
  Task      148 on host co6633 reporting.
  Task      149 on host co6633 reporting.
  Task      150 on host co6633 reporting.
  Task      151 on host co6633 reporting.
  Task      152 on host co6633 reporting.
  Task      153 on host co6633 reporting.
  Task      154 on host co6633 reporting.
  Task      155 on host co6633 reporting.
  Task      156 on host co6633 reporting.
  Task      157 on host co6633 reporting.
  Task      158 on host co6633 reporting.
  Task      159 on host co6633 reporting.

  Performing system and environment tests:
  | Environment variable OMP_NUM_THREADS correctly set to 1.
  | Checking for ScaLAPACK...
  | Testing pdtran()...
  | All pdtran() tests passed.

  Obtaining array dimensions for all initial allocations:
  
  -----------------------------------------------------------------------
  Parsing control.in (first pass over file, find array dimensions only).
  The contents of control.in will be repeated verbatim below
  unless switched off by setting 'verbatim_writeout .false.' .
  in the first line of control.in .
  -----------------------------------------------------------------------
  
  xc                 hse06  0.11
  hse_unit b
  spin               none
  charge      0.0
  relativistic       atomic_zora scalar
  #elsi_restart read
  # SCF settings
  relax_geometry bfgs 1E-3
  #empty_states 8
  #use_dipole_correction
  #include_spin_orbit non_self_consistent
  # sc_accuracy_rho    1E-4
  #    sc_accuracy_eev    1E-3
  #    sc_accuracy_etot   1E-4
  #    sc_accuracy_forces 1E-2
  many_body_dispersion_nl    beta=0.83
  
  
  
  ################################################################################
  #
  #  FHI-aims code project
  # Volker Blum, Fritz Haber Institute Berlin, 2009
  #
  #  Suggested "tight" defaults for S atom (to be pasted into control.in file)
  #
  #  Revised Jan 04, 2011, following tests (SiC) done by Lydia Nemec:
  #     d and g functions of tier 2 now enabled by default.
  #
  ################################################################################
    species        S
  #     global species definitions
      nucleus             16
      mass                32.065
  #
      l_hartree           6
  #
      cut_pot             4.0          2.0  1.0
      basis_dep_cutoff    1e-4
  #
      radial_base         44 7.0
      radial_multiplier   2
      angular_grids       specified
        division   0.4665  110
        division   0.5810  194
        division   0.7139  302
        division   0.8274  434
  #      division   0.9105  590
  #      division   1.0975  770
  #      division   1.2028  974
  #      outer_grid  974
        outer_grid  434
  ################################################################################
  #
  #  Definition of "minimal" basis
  #
  ################################################################################
  #     valence basis states
      valence      3  s   2.
      valence      3  p   4.
  #     ion occupancy
      ion_occ      3  s   1.
      ion_occ      3  p   3.
  ################################################################################
  #
  #  Suggested additional basis functions. For production calculations,
  #  uncomment them one after another (the most important basis functions are
  #  listed first).
  #
  #  Constructed for dimers: 1.6 A, 1.9 A, 2.5 A, 3.25 A, 4.0 A
  #
  ################################################################################
  #  "First tier" - improvements: -652.81 meV to -45.53 meV
       ionic 3 d auto
       hydro 2 p 1.8
       hydro 4 f 7
       ionic 3 s auto
  #  "Second tier" - improvements: -30.20 meV to -1.74 meV
       hydro 4 d 6.2
       hydro 5 g 10.8
  #     hydro 4 p 4.9
  #     hydro 5 f 10
  #     hydro 1 s 0.8
  #  "Third tier" - improvements: -1.04 meV to -0.20 meV
  #     hydro 3 d 3.9
  #     hydro 3 d 2.7
  #     hydro 5 g 12
  #     hydro 4 p 10.4
  #     hydro 5 f 12.4
  #     hydro 2 s 1.9
  #  "Fourth tier" - improvements: -0.35 meV to -0.06 meV
  #     hydro 4 d 10.4
  #     hydro 4 p 7.2
  #     hydro 4 d 10
  #     hydro 5 g 19.2
  #     hydro 4 s 12
  
  ################################################################################
  #
  # For methods that use the localized form of the "resolution of identity" for
  # the two-electron Coulomb operator (RI_method LVL), particularly Hartree-Fock and
  # hybrid density functional calculations, the highest accuracy can be obtained by
  # uncommenting the line beginning with "for_aux"  below, thus adding an extra g radial
  # function to the construction of the product basis set for the expansion.
  # See Ref. New J. Phys. 17, 093020 (2015) for more information, particularly Figs. 1 and 6.
  #
  ################################################################################
  #
  # for_aux hydro 5 g 6.0
  ################################################################################
  #
  #  FHI-aims code project
  # Volker Blum, Fritz Haber Institute Berlin, 2009
  #
  #  Suggested "tight" defaults for Mo atom (to be pasted into control.in file)
  #
  ################################################################################
    species        Mo
  #     global species definitions
      nucleus             42
      mass                95.94
  #
      l_hartree           6
  #
      cut_pot             4.0  2.0  1.0
      basis_dep_cutoff    1e-4
  #
      radial_base         59 7.0
      radial_multiplier   2
      angular_grids specified
        division   0.3117   50
        division   0.6750  110
        division   1.0351  194
        division   1.2073  302
        division   1.6402  434
  #      division   1.9185  590
  #      division   2.0237  770
  #      division   2.0980  974
  #      division   2.7972 1202
  #      outer_grid  974
        outer_grid  434
  ################################################################################
  #
  #  Definition of "minimal" basis
  #
  ################################################################################
  #     valence basis states
      valence      5  s   1.
      valence      4  p   6.
      valence      4  d   5.
  #     ion occupancy
      ion_occ     5  s   0.
      ion_occ     4  p   6.
      ion_occ     4  d   4.
  ################################################################################
  #
  #  Suggested additional basis functions. For production calculations,
  #  uncomment them one after another (the most important basis functions are
  #  listed first).
  #
  #  Constructed for dimers: 1.675 A, 1.9 A, 2.375 A, 3.00 A, 4.00 A
  #
  ################################################################################
  #  "First tier"  - max. impr. -711.23  meV, min. impr. -21.07 meV
       hydro 4 f 8.4
       hydro 3 d 2.8
       ionic 5 p auto
       hydro 5 g 12
       ionic 5 s auto
  #  "Second tier" - max. impr. -39.38  meV, min. impr. -2.68 meV
  #     hydro 4 f 12.4
  #     hydro 3 d 3.3
  #     hydro 6 h 17.2
  #     hydro 4 f 7.6
  #     hydro 3 p 3.0
  #     hydro 1 s 0.65
  #  "Third tier"  - max. impr. -5.50 meV, min. impr. -0.47 meV
  #     hydro 4 f 29.2
  #     hydro 5 g 11.2
  #     hydro 3 d 6.8
  #     hydro 6 h 14.8
  #     hydro 2 p 2.3
  #     hydro 4 s 3.8
  #  "Fourth tier"  - max. impr. -0.58 meV, min. impr. -0.19 meV
  #     hydro 5 f 6.8
  #     hydro 5 d 14.8
  #     hydro 6 s 7.8
  #     hydro 5 g 20.8
  #     hydro 5 d 10.4
  #     hydro 5 p 9.8
  #  Further functions - -0.17 meV and below
  #     hydro 5 d 3.2
  
  -----------------------------------------------------------------------
  Completed first pass over input file control.in .
  -----------------------------------------------------------------------
  
  
  -----------------------------------------------------------------------
  Parsing geometry.in (first pass over file, find array dimensions only).
  The contents of geometry.in will be repeated verbatim below
  unless switched off by setting 'verbatim_writeout .false.' .
  in the first line of geometry.in .
  -----------------------------------------------------------------------
  
  #
  # This is the geometry file that corresponds to the current relaxation step.
  # If you do not want this file to be written, set the "write_restart_geometry" flag to .false.
  #  aims_uuid : 94A7F52A-3766-40CB-AE00-01B0BAFBD02B
  #
  atom       2.22480726      5.78074911      7.67454878 S
  atom       2.37803485      7.56612101      6.71138591 S
  atom       0.97812183      8.82877983      7.47596174 S
  atom      -0.63203742      8.82878146      6.23253735 S
  atom      -1.87873476      5.78075758      6.03395198 S
  atom      -0.78527772      4.51814140      7.19531352 S
  atom       1.13134327      4.51813902      6.51318702 S
  atom      -2.03195731      7.56613059      6.99711370 S
  #
  # What follows is the current estimated Hessian matrix constructed by the BFGS algorithm.
  # This is NOT the true Hessian matrix of the system.
  # If you do not want this information here, switch it off using the "hessian_to_restart_geometry" keyword.
  #
  
  -----------------------------------------------------------------------
  Completed first pass over input file geometry.in .
  -----------------------------------------------------------------------
  

  Basic array size parameters:
  | Number of species                 :        2
  | Number of atoms                   :        8
  | Max. basis fn. angular momentum   :        4
  | Max. atomic/ionic basis occupied n:        5
  | Max. number of basis fn. types    :        3
  | Max. radial fns per species/type  :       10
  | Max. logarithmic grid size        :     1436
  | Max. radial integration grid size :      119
  | Max. angular integration grid size:      434
  | Max. angular grid division number :        8
  | Radial grid for Hartree potential :     1436
  | Number of spin channels           :        1

------------------------------------------------------------
          Reading file control.in.
------------------------------------------------------------

  XC: Using HSE-functional with OMEGA =  0.110000E+00 <units>.
  XC: For the actual units (bohr^-1 or Angstrom^-1), see below.
  hse_unit: Unit for the HSE06 hybrid functional screening parameter set to bohr^(-1).
  Spin treatment: No spin polarisation.
  Charge =   0.000000E+00: Neutral system requested explicitly.
  Scalar relativistic treatment of kinetic energy: on-site free-atom approximation to ZORA.
  Geometry relaxation: Modified BFGS - TRM (trust radius method) for lattice optimization.
  Convergence accuracy for geometry relaxation: Maximum force <   0.100000E-02 eV/A.
  Using libMBD for calculating MBD and TS energies
 
  Reading configuration options for species S                   .
  | Found nuclear charge :  16.0000
  | Found atomic mass :    32.0650000000000      amu
  | Found l_max for Hartree potential  :   6
  | Found cutoff potl. onset [A], width [A], scale factor :    4.00000    2.00000    1.00000
  | Threshold for basis-dependent cutoff potential is   0.100000E-03
  | Found data for basic radial integration grid :    44 points, outermost radius =    7.000 A
  | Found multiplier for basic radial grid :   2
  | Found angular grid specification: user-specified.
  | Specified grid contains     5 separate shells.
  | Check grid settings after all constraints further below.
  | Found free-atom valence shell :  3 s   2.000
  | Found free-atom valence shell :  3 p   4.000
  | Found free-ion valence shell :  3 s   1.000
  | Found free-ion valence shell :  3 p   3.000
  | Found ionic basis function :  3 d , default cutoff radius.
  | Found hydrogenic basis function :  2 p   1.800
  | Found hydrogenic basis function :  4 f   7.000
  | Found ionic basis function :  3 s , default cutoff radius.
  | Found hydrogenic basis function :  4 d   6.200
  | Found hydrogenic basis function :  5 g  10.800
  Species S                   : Missing cutoff potential type.
  Defaulting to exp(1/x)/(1-x)^2 type cutoff potential.
  Species S : No 'logarithmic' tag. Using default grid for free atom:
  | Default logarithmic grid data [bohr] : 0.1000E-03 0.1000E+03 0.1012E+01
  | Will include ionic basis functions of  2.0-fold positive S                    ion.
  Species S : On-site basis accuracy parameter (for Gram-Schmidt orthonormalisation) not specified.
  Using default value basis_acc =  0.1000000E-03.
  Species S                   : Using default innermost maximum threshold i_radial=  2 for radial functions.
  Species S                   : Default cutoff onset for free atom density etc. : 0.40000000E+01 AA.
  Species S                   : Basic radial grid will be enhanced according to radial_multiplier =   2, to contain    89 grid points.
 
  Reading configuration options for species Mo                  .
  | Found nuclear charge :  42.0000
  | Found atomic mass :    95.9400000000000      amu
  | Found l_max for Hartree potential  :   6
  | Found cutoff potl. onset [A], width [A], scale factor :    4.00000    2.00000    1.00000
  | Threshold for basis-dependent cutoff potential is   0.100000E-03
  | Found data for basic radial integration grid :    59 points, outermost radius =    7.000 A
  | Found multiplier for basic radial grid :   2
  | Found angular grid specification: user-specified.
  | Specified grid contains     6 separate shells.
  | Check grid settings after all constraints further below.
  | Found free-atom valence shell :  5 s   1.000
  | Found free-atom valence shell :  4 p   6.000
  | Found free-atom valence shell :  4 d   5.000
  | Found free-ion valence shell :  5 s   0.000
  | Found free-ion valence shell :  4 p   6.000
  | Found free-ion valence shell :  4 d   4.000
  | Found hydrogenic basis function :  4 f   8.400
  | Found hydrogenic basis function :  3 d   2.800
  | Found ionic basis function :  5 p , default cutoff radius.
  | Found hydrogenic basis function :  5 g  12.000
  | Found ionic basis function :  5 s , default cutoff radius.
  Species Mo                  : Missing cutoff potential type.
  Defaulting to exp(1/x)/(1-x)^2 type cutoff potential.
  Species Mo: No 'logarithmic' tag. Using default grid for free atom:
  | Default logarithmic grid data [bohr] : 0.1000E-03 0.1000E+03 0.1012E+01
  | Will include ionic basis functions of  2.0-fold positive Mo                   ion.
  Species Mo: On-site basis accuracy parameter (for Gram-Schmidt orthonormalisation) not specified.
  Using default value basis_acc =  0.1000000E-03.
  Species Mo                  : Using default innermost maximum threshold i_radial=  2 for radial functions.
  Species Mo                  : Default cutoff onset for free atom density etc. : 0.40000000E+01 AA.
  Species Mo                  : Basic radial grid will be enhanced according to radial_multiplier =   2, to contain   119 grid points.
 
  Finished reading input file 'control.in'.
 
------------------------------------------------------------


------------------------------------------------------------
          Reading geometry description geometry.in.
------------------------------------------------------------
  | The smallest distance between any two atoms is         2.03435703 AA.
  | The first atom of this pair is atom number                      5 .
  | The second atom of this pair is atom number                     6 .
  Input structure read successfully.
  The structure contains        8 atoms,  and a total of        128.000 electrons.

  Input geometry:
  | No unit cell requested.
  | Atomic structure:
  |       Atom                x [A]            y [A]            z [A]
  |    1: Species S             2.22480726        5.78074911        7.67454878
  |    2: Species S             2.37803485        7.56612101        6.71138591
  |    3: Species S             0.97812183        8.82877983        7.47596174
  |    4: Species S            -0.63203742        8.82878146        6.23253735
  |    5: Species S            -1.87873476        5.78075758        6.03395198
  |    6: Species S            -0.78527772        4.51814140        7.19531352
  |    7: Species S             1.13134327        4.51813902        6.51318702
  |    8: Species S            -2.03195731        7.56613059        6.99711370

 
  Finished reading input file 'control.in'.
 

------------------------------------------------------------
          Reading geometry description geometry.in.
------------------------------------------------------------
 
  Consistency checks for stacksize environment parameter are next.
 
  | Maximum stacksize for task 0: unlimited
  | Maximum stacksize for task 1: unlimited
  | Maximum stacksize for task 2: unlimited
  | Maximum stacksize for task 3: unlimited
  | Maximum stacksize for task 4: unlimited
  | Maximum stacksize for task 5: unlimited
  | Maximum stacksize for task 6: unlimited
  | Maximum stacksize for task 7: unlimited
  | Maximum stacksize for task 8: unlimited
  | Maximum stacksize for task 9: unlimited
  | Maximum stacksize for task 10: unlimited
  | Maximum stacksize for task 11: unlimited
  | Maximum stacksize for task 12: unlimited
  | Maximum stacksize for task 13: unlimited
  | Maximum stacksize for task 14: unlimited
  | Maximum stacksize for task 15: unlimited
  | Maximum stacksize for task 16: unlimited
  | Maximum stacksize for task 17: unlimited
  | Maximum stacksize for task 18: unlimited
  | Maximum stacksize for task 19: unlimited
  | Maximum stacksize for task 20: unlimited
  | Maximum stacksize for task 21: unlimited
  | Maximum stacksize for task 22: unlimited
  | Maximum stacksize for task 23: unlimited
  | Maximum stacksize for task 24: unlimited
  | Maximum stacksize for task 25: unlimited
  | Maximum stacksize for task 26: unlimited
  | Maximum stacksize for task 27: unlimited
  | Maximum stacksize for task 28: unlimited
  | Maximum stacksize for task 29: unlimited
  | Maximum stacksize for task 30: unlimited
  | Maximum stacksize for task 31: unlimited
  | Maximum stacksize for task 32: unlimited
  | Maximum stacksize for task 33: unlimited
  | Maximum stacksize for task 34: unlimited
  | Maximum stacksize for task 35: unlimited
  | Maximum stacksize for task 36: unlimited
  | Maximum stacksize for task 37: unlimited
  | Maximum stacksize for task 38: unlimited
  | Maximum stacksize for task 39: unlimited
  | Maximum stacksize for task 40: unlimited
  | Maximum stacksize for task 41: unlimited
  | Maximum stacksize for task 42: unlimited
  | Maximum stacksize for task 43: unlimited
  | Maximum stacksize for task 44: unlimited
  | Maximum stacksize for task 45: unlimited
  | Maximum stacksize for task 46: unlimited
  | Maximum stacksize for task 47: unlimited
  | Maximum stacksize for task 48: unlimited
  | Maximum stacksize for task 49: unlimited
  | Maximum stacksize for task 50: unlimited
  | Maximum stacksize for task 51: unlimited
  | Maximum stacksize for task 52: unlimited
  | Maximum stacksize for task 53: unlimited
  | Maximum stacksize for task 54: unlimited
  | Maximum stacksize for task 55: unlimited
  | Maximum stacksize for task 56: unlimited
  | Maximum stacksize for task 57: unlimited
  | Maximum stacksize for task 58: unlimited
  | Maximum stacksize for task 59: unlimited
  | Maximum stacksize for task 60: unlimited
  | Maximum stacksize for task 61: unlimited
  | Maximum stacksize for task 62: unlimited
  | Maximum stacksize for task 63: unlimited
  | Maximum stacksize for task 64: unlimited
  | Maximum stacksize for task 65: unlimited
  | Maximum stacksize for task 66: unlimited
  | Maximum stacksize for task 67: unlimited
  | Maximum stacksize for task 68: unlimited
  | Maximum stacksize for task 69: unlimited
  | Maximum stacksize for task 70: unlimited
  | Maximum stacksize for task 71: unlimited
  | Maximum stacksize for task 72: unlimited
  | Maximum stacksize for task 73: unlimited
  | Maximum stacksize for task 74: unlimited
  | Maximum stacksize for task 75: unlimited
  | Maximum stacksize for task 76: unlimited
  | Maximum stacksize for task 77: unlimited
  | Maximum stacksize for task 78: unlimited
  | Maximum stacksize for task 79: unlimited
  | Maximum stacksize for task 80: unlimited
  | Maximum stacksize for task 81: unlimited
  | Maximum stacksize for task 82: unlimited
  | Maximum stacksize for task 83: unlimited
  | Maximum stacksize for task 84: unlimited
  | Maximum stacksize for task 85: unlimited
  | Maximum stacksize for task 86: unlimited
  | Maximum stacksize for task 87: unlimited
  | Maximum stacksize for task 88: unlimited
  | Maximum stacksize for task 89: unlimited
  | Maximum stacksize for task 90: unlimited
  | Maximum stacksize for task 91: unlimited
  | Maximum stacksize for task 92: unlimited
  | Maximum stacksize for task 93: unlimited
  | Maximum stacksize for task 94: unlimited
  | Maximum stacksize for task 95: unlimited
  | Maximum stacksize for task 96: unlimited
  | Maximum stacksize for task 97: unlimited
  | Maximum stacksize for task 98: unlimited
  | Maximum stacksize for task 99: unlimited
  | Maximum stacksize for task 100: unlimited
  | Maximum stacksize for task 101: unlimited
  | Maximum stacksize for task 102: unlimited
  | Maximum stacksize for task 103: unlimited
  | Maximum stacksize for task 104: unlimited
  | Maximum stacksize for task 105: unlimited
  | Maximum stacksize for task 106: unlimited
  | Maximum stacksize for task 107: unlimited
  | Maximum stacksize for task 108: unlimited
  | Maximum stacksize for task 109: unlimited
  | Maximum stacksize for task 110: unlimited
  | Maximum stacksize for task 111: unlimited
  | Maximum stacksize for task 112: unlimited
  | Maximum stacksize for task 113: unlimited
  | Maximum stacksize for task 114: unlimited
  | Maximum stacksize for task 115: unlimited
  | Maximum stacksize for task 116: unlimited
  | Maximum stacksize for task 117: unlimited
  | Maximum stacksize for task 118: unlimited
  | Maximum stacksize for task 119: unlimited
  | Maximum stacksize for task 120: unlimited
  | Maximum stacksize for task 121: unlimited
  | Maximum stacksize for task 122: unlimited
  | Maximum stacksize for task 123: unlimited
  | Maximum stacksize for task 124: unlimited
  | Maximum stacksize for task 125: unlimited
  | Maximum stacksize for task 126: unlimited
  | Maximum stacksize for task 127: unlimited
  | Maximum stacksize for task 128: unlimited
  | Maximum stacksize for task 129: unlimited
  | Maximum stacksize for task 130: unlimited
  | Maximum stacksize for task 131: unlimited
  | Maximum stacksize for task 132: unlimited
  | Maximum stacksize for task 133: unlimited
  | Maximum stacksize for task 134: unlimited
  | Maximum stacksize for task 135: unlimited
  | Maximum stacksize for task 136: unlimited
  | Maximum stacksize for task 137: unlimited
  | Maximum stacksize for task 138: unlimited
  | Maximum stacksize for task 139: unlimited
  | Maximum stacksize for task 140: unlimited
  | Maximum stacksize for task 141: unlimited
  | Maximum stacksize for task 142: unlimited
  | Maximum stacksize for task 143: unlimited
  | Maximum stacksize for task 144: unlimited
  | Maximum stacksize for task 145: unlimited
  | Maximum stacksize for task 146: unlimited
  | Maximum stacksize for task 147: unlimited
  | Maximum stacksize for task 148: unlimited
  | Maximum stacksize for task 149: unlimited
  | Maximum stacksize for task 150: unlimited
  | Maximum stacksize for task 151: unlimited
  | Maximum stacksize for task 152: unlimited
  | Maximum stacksize for task 153: unlimited
  | Maximum stacksize for task 154: unlimited
  | Maximum stacksize for task 155: unlimited
  | Maximum stacksize for task 156: unlimited
  | Maximum stacksize for task 157: unlimited
  | Maximum stacksize for task 158: unlimited
  | Maximum stacksize for task 159: unlimited
  | Current stacksize for task 0: unlimited
  | Current stacksize for task 1: unlimited
  | Current stacksize for task 2: unlimited
  | Current stacksize for task 3: unlimited
  | Current stacksize for task 4: unlimited
  | Current stacksize for task 5: unlimited
  | Current stacksize for task 6: unlimited
  | Current stacksize for task 7: unlimited
  | Current stacksize for task 8: unlimited
  | Current stacksize for task 9: unlimited
  | Current stacksize for task 10: unlimited
  | Current stacksize for task 11: unlimited
  | Current stacksize for task 12: unlimited
  | Current stacksize for task 13: unlimited
  | Current stacksize for task 14: unlimited
  | Current stacksize for task 15: unlimited
  | Current stacksize for task 16: unlimited
  | Current stacksize for task 17: unlimited
  | Current stacksize for task 18: unlimited
  | Current stacksize for task 19: unlimited
  | Current stacksize for task 20: unlimited
  | Current stacksize for task 21: unlimited
  | Current stacksize for task 22: unlimited
  | Current stacksize for task 23: unlimited
  | Current stacksize for task 24: unlimited
  | Current stacksize for task 25: unlimited
  | Current stacksize for task 26: unlimited
  | Current stacksize for task 27: unlimited
  | Current stacksize for task 28: unlimited
  | Current stacksize for task 29: unlimited
  | Current stacksize for task 30: unlimited
  | Current stacksize for task 31: unlimited
  | Current stacksize for task 32: unlimited
  | Current stacksize for task 33: unlimited
  | Current stacksize for task 34: unlimited
  | Current stacksize for task 35: unlimited
  | Current stacksize for task 36: unlimited
  | Current stacksize for task 37: unlimited
  | Current stacksize for task 38: unlimited
  | Current stacksize for task 39: unlimited
  | Current stacksize for task 40: unlimited
  | Current stacksize for task 41: unlimited
  | Current stacksize for task 42: unlimited
  | Current stacksize for task 43: unlimited
  | Current stacksize for task 44: unlimited
  | Current stacksize for task 45: unlimited
  | Current stacksize for task 46: unlimited
  | Current stacksize for task 47: unlimited
  | Current stacksize for task 48: unlimited
  | Current stacksize for task 49: unlimited
  | Current stacksize for task 50: unlimited
  | Current stacksize for task 51: unlimited
  | Current stacksize for task 52: unlimited
  | Current stacksize for task 53: unlimited
  | Current stacksize for task 54: unlimited
  | Current stacksize for task 55: unlimited
  | Current stacksize for task 56: unlimited
  | Current stacksize for task 57: unlimited
  | Current stacksize for task 58: unlimited
  | Current stacksize for task 59: unlimited
  | Current stacksize for task 60: unlimited
  | Current stacksize for task 61: unlimited
  | Current stacksize for task 62: unlimited
  | Current stacksize for task 63: unlimited
  | Current stacksize for task 64: unlimited
  | Current stacksize for task 65: unlimited
  | Current stacksize for task 66: unlimited
  | Current stacksize for task 67: unlimited
  | Current stacksize for task 68: unlimited
  | Current stacksize for task 69: unlimited
  | Current stacksize for task 70: unlimited
  | Current stacksize for task 71: unlimited
  | Current stacksize for task 72: unlimited
  | Current stacksize for task 73: unlimited
  | Current stacksize for task 74: unlimited
  | Current stacksize for task 75: unlimited
  | Current stacksize for task 76: unlimited
  | Current stacksize for task 77: unlimited
  | Current stacksize for task 78: unlimited
  | Current stacksize for task 79: unlimited
  | Current stacksize for task 80: unlimited
  | Current stacksize for task 81: unlimited
  | Current stacksize for task 82: unlimited
  | Current stacksize for task 83: unlimited
  | Current stacksize for task 84: unlimited
  | Current stacksize for task 85: unlimited
  | Current stacksize for task 86: unlimited
  | Current stacksize for task 87: unlimited
  | Current stacksize for task 88: unlimited
  | Current stacksize for task 89: unlimited
  | Current stacksize for task 90: unlimited
  | Current stacksize for task 91: unlimited
  | Current stacksize for task 92: unlimited
  | Current stacksize for task 93: unlimited
  | Current stacksize for task 94: unlimited
  | Current stacksize for task 95: unlimited
  | Current stacksize for task 96: unlimited
  | Current stacksize for task 97: unlimited
  | Current stacksize for task 98: unlimited
  | Current stacksize for task 99: unlimited
  | Current stacksize for task 100: unlimited
  | Current stacksize for task 101: unlimited
  | Current stacksize for task 102: unlimited
  | Current stacksize for task 103: unlimited
  | Current stacksize for task 104: unlimited
  | Current stacksize for task 105: unlimited
  | Current stacksize for task 106: unlimited
  | Current stacksize for task 107: unlimited
  | Current stacksize for task 108: unlimited
  | Current stacksize for task 109: unlimited
  | Current stacksize for task 110: unlimited
  | Current stacksize for task 111: unlimited
  | Current stacksize for task 112: unlimited
  | Current stacksize for task 113: unlimited
  | Current stacksize for task 114: unlimited
  | Current stacksize for task 115: unlimited
  | Current stacksize for task 116: unlimited
  | Current stacksize for task 117: unlimited
  | Current stacksize for task 118: unlimited
  | Current stacksize for task 119: unlimited
  | Current stacksize for task 120: unlimited
  | Current stacksize for task 121: unlimited
  | Current stacksize for task 122: unlimited
  | Current stacksize for task 123: unlimited
  | Current stacksize for task 124: unlimited
  | Current stacksize for task 125: unlimited
  | Current stacksize for task 126: unlimited
  | Current stacksize for task 127: unlimited
  | Current stacksize for task 128: unlimited
  | Current stacksize for task 129: unlimited
  | Current stacksize for task 130: unlimited
  | Current stacksize for task 131: unlimited
  | Current stacksize for task 132: unlimited
  | Current stacksize for task 133: unlimited
  | Current stacksize for task 134: unlimited
  | Current stacksize for task 135: unlimited
  | Current stacksize for task 136: unlimited
  | Current stacksize for task 137: unlimited
  | Current stacksize for task 138: unlimited
  | Current stacksize for task 139: unlimited
  | Current stacksize for task 140: unlimited
  | Current stacksize for task 141: unlimited
  | Current stacksize for task 142: unlimited
  | Current stacksize for task 143: unlimited
  | Current stacksize for task 144: unlimited
  | Current stacksize for task 145: unlimited
  | Current stacksize for task 146: unlimited
  | Current stacksize for task 147: unlimited
  | Current stacksize for task 148: unlimited
  | Current stacksize for task 149: unlimited
  | Current stacksize for task 150: unlimited
  | Current stacksize for task 151: unlimited
  | Current stacksize for task 152: unlimited
  | Current stacksize for task 153: unlimited
  | Current stacksize for task 154: unlimited
  | Current stacksize for task 155: unlimited
  | Current stacksize for task 156: unlimited
  | Current stacksize for task 157: unlimited
  | Current stacksize for task 158: unlimited
  | Current stacksize for task 159: unlimited
 
  Consistency checks for the contents of control.in are next.
 
  HSE06 screening parameters: omega_HF  =      0.11000000 bohr^-1, and
                              omega_PBE =      0.11000000 bohr^-1.
  MPI_IN_PLACE appears to work with this MPI implementation.
  | Keeping use_mpi_in_place .true. (see manual).
  Explicit treatment of the Coulomb operator is needed, but the RI method is not specified.
  Coulomb operator: Defaulting to 'LVL fast' resolution of identity - RI_type = LVL_fast
  Species S: Using default value for prodbas_acc =   1.000000E-04.
  Species S: Using default value max_l_prodbas =    20.
  Species Mo: Using default value for prodbas_acc =   1.000000E-04.
  Species Mo: Using default value max_l_prodbas =    20.
  Target number of points in a grid batch is not set. Defaulting to  100
  Method for grid partitioning is not set. Defaulting to parallel hash+maxmin partitioning.
  Batch size limit is not set. Defaulting to    200
  By default, will store active basis functions for each batch.
  If in need of memory, prune_basis_once .false. can be used to disable this option.
  communication_type for Hartree potential was not specified.
  Defaulting to calc_hartree .
  Defaulting to Pulay charge density mixer.
  Pulay mixer: Number of relevant iterations not set.
  Defaulting to    8 iterations.
  Pulay mixer: Number of initial linear mixing iterations not set.
  Defaulting to    0 iterations.
  Work space size for distributed Hartree potential not set.
  Defaulting to   0.200000E+03 MB.
  Mixing parameter for charge density mixing has not been set.
  Using default: charge_mix_param =     0.0500.
  The mixing parameter will be adjusted in iteration number     2 of the first full s.c.f. cycle only.
  Algorithm-dependent basis array size parameters:
  | n_max_pulay                         :        8
  Maximum number of self-consistency iterations not provided.
  Presetting  1000 iterations.
  Presetting      1001 iterations before the initial mixing cycle
  is restarted anyway using the sc_init_iter criterion / keyword.
  Presetting a factor      1.000 between actual scf density residual
  and density convergence criterion sc_accuracy_rho below which sc_init_iter
  takes no effect.
 * No s.c.f. convergence criteria (sc_accuracy_*) were provided in control.in.
 * The run will proceed with a reasonable default guess, but please check whether.
 * the s.c.f. cycles seem to take too much or too little time.
  No maximum number of relaxation steps, defaulting to     1000
  Default initial Hessian is Lindh matrix (thres = 15.00) plus  0.200000E+01 eV/A^2 times unity.
  No maximum energy tolerance for TRM/BFGS moves, defaulting to   0.100000E-02
  Maximum energy tolerance by which TRM/BFGS trajectory may increase over multiple steps:   0.300000E-02
  No harmonic length scale. Defaulting to   0.250000E-01 A.
  No trust radius initializer. Defaulting to   0.200000E+00 A.
  Forces evaluation will include force correction term due to incomplete self-consistency (default).
 * Notice: The s.c.f. convergence criterion sc_accuracy_rho was not provided.
 * We used to stop in this case, and ask the user to provide reasonable
 * scf convergence criteria. However, this led some users to employ criteria
 * that led to extremely long run times, e.g., for simple relaxation.
 * We now preset a default value for sc_accuracy_rho if it is not set.
 * You may still wish to check if this setting is too tight or too loose for your needs.
 * Based on n_atoms and forces and force-correction status, FHI-aims chose sc_accuracy_rho =  0.923760E-05 .
  Force calculation: scf convergence accuracy of forces not set.
  Defaulting to 'sc_accuracy_forces not_checked'.
  Handling of forces: Unphysical translation and rotation will be removed from forces.
  No accuracy limit for integral partition fn. given. Defaulting to  0.1000E-14.
  No threshold value for u(r) in integrations given. Defaulting to  0.1000E-05.
  No occupation type (smearing scheme) given. Defaulting to Gaussian broadening, width =  0.1000E-01 eV.
  The width will be adjusted in iteration number     2 of the first full s.c.f. cycle only.
  S.C.F. convergence parameters will be adjusted in iteration number     2 of the first full s.c.f. cycle only.
  No accuracy for occupation numbers given. Defaulting to  0.1000E-12.
  No threshold value for occupation numbers given. Defaulting to  0.0000E+00.
  No accuracy for fermi level given. Defaulting to  0.1000E-19.
  Maximum # of iterations to find E_F not set. Defaulting to  200.
  Preferred method for the eigenvalue solver ('KS_method') not specified in 'control.in'.
  Calling BLACS routine to test compilation state
  Since ScaLAPACK support is enabled, defaulting to ELPA (via ELSI).
  Will not use alltoall communication since running on < 1024 CPUs.
  Threshold for basis singularities not set.
  Default threshold for basis singularities:  0.1000E-04
  partition_type (choice of integration weights) for integrals was not specified.
  | Using a version of the partition function of Stratmann and coworkers ('stratmann_sparse').
  | At each grid point, the set of atoms used to build the partition table is smoothly restricted to
  | only those atoms whose free-atom density would be non-zero at that grid point.
  Partitioning for Hartree potential was not defined. Using partition_type for integrals.
  | Adjusted default value of keyword multip_moments_threshold to:       0.10000000E-11
  | This value may affect high angular momentum components of the Hartree potential in periodic systems.
  Threshold for auxiliary basis singularities not set.
  Default threshold for auxiliary basis singularities:  0.1000E-04
  No q(lm)/r^(l+1) cutoff set for long-range Hartree potential.
  | Using default value of  0.100000E-09 .
  | Verify using the multipole_threshold keyword.
  Defaulting to new monopole extrapolation.
  Density update method: automatic selection selected.
  Coulomb operator: Defaulting to screening threshold for four-center integrals:   0.100000E-06
  Coulomb operator: Defaulting to screening threshold for Coulomb matrix:   0.100000E-09
  Coulomb operator: Defaulting to 'LVL_fast' resolution of identity - RI_type = LVL_fast 
  No other resolution of identity version is supported for periodic boundary conditions at present.
  Coulomb operator: Defaulting to logarithmic spherical Bessel transform integrals (use_logsbt .true.).
  HSE with LVL_fast: Also defaulting to logarithmic spherical Bessel transform integrals.
  Geometry relaxation: A file "geometry.in.next_step" is written out by default after each step.
  | This file contains the geometry of the current relaxation step as well as
  | the current Hessian matrix needed to restart the relaxation algorithm.
  | If you do not want part or all of this information, use the keywords
  | "write_restart_geometry" or "hessian_to_restart_geometry" to switch the output off.
  Charge integration errors on the 3D integration grid will be compensated
  by explicit normalization and distribution of residual charges.
  Use the "compensate_multipole_errors" flag to change this behaviour.
  LVL not implemented with density matrix yet
  -> switching to transformed overlap
  LVL probably works better with logsbt
  Default to 1D ("use_logsbt") integrations for auxiliary 2-center integrals.
  Default onset of logarithmic r-grid for SBT is -38.000000000000
  Default onset of logarithmic k-grid for SBT is -25.000000000000
  Default range of logarithmic r- and k-grid for SBT is  45.000000000000
  Default number of logarithmic r- and k-grid for SBT is   4096
  * Use logSBT for radial HSE integration, too
  Default of use_2d_corr is to use the efficient 2D distribution where possible
  Set 'collect_eigenvectors' to be '.true.' for use_density_matrix .false.
 
  Consistency checks for the contents of geometry.in are next.
 
  Number of empty states per atom not set in control.in - providing a guess from actual geometry.
  | Total number of empty states used during s.c.f. cycle:       24
  If you use a very high smearing, use empty_states (per atom!) in control.in to increase this value.

  Structure-dependent array size parameters: 
  | Maximum number of distinct radial functions  :       26
  | Maximum number of basis functions            :      312
  | Number of Kohn-Sham states (occupied + empty):       88
------------------------------------------------------------
  Setting Coulomb cut-width to  1.091868692359 * rcut.
  Setting Coulomb cutting radius rcut to  8.000000000000 A.

------------------------------------------------------------
          Preparing all fixed parts of the calculation.
------------------------------------------------------------
  Determining machine precision:
    2.225073858507201E-308
  Setting up grids for atomic and cluster calculations.

  Creating wave function, potential, and density for free atoms.

  Species: S

  List of occupied orbitals and eigenvalues:
    n    l              occ      energy [Ha]    energy [eV]
    1    0           2.0000       -88.680731     -2413.1255
    2    0           2.0000        -7.781719      -211.7513
    3    0           2.0000        -0.633662       -17.2428
    2    1           6.0000        -5.751976      -156.5192
    3    1           4.0000        -0.257086        -6.9957


  Species: Mo

  List of occupied orbitals and eigenvalues:
    n    l              occ      energy [Ha]    energy [eV]
    1    0           2.0000      -745.344654    -20281.8600
    2    0           2.0000      -103.288246     -2810.6162
    3    0           2.0000       -17.516687      -476.6533
    4    0           2.0000        -2.358559       -64.1796
    5    0           1.0000        -0.145159        -3.9500
    2    1           6.0000       -92.308627     -2511.8455
    3    1           6.0000       -13.936005      -379.2180
    4    1           6.0000        -1.408138       -38.3174
    3    2          10.0000        -8.119011      -220.9295
    4    2           5.0000        -0.132984        -3.6187


  Adding cutoff potential to free-atom effective potential.
  Creating fixed part of basis set: Ionic, confined, hydrogenic.
 
  S                    ion:

  List of free ionic orbitals and eigenvalues:
    n    l      energy [Ha]    energy [eV]
    1    0       -89.703778     -2440.9640
    2    0        -8.775428      -238.7916
    3    0        -1.470343       -40.0101
    2    1        -6.747660      -183.6132
    3    1        -1.048627       -28.5346


  List of ionic basis orbitals and eigenvalues:
    n    l      energy [Ha]    energy [eV]    outer radius [A]
    3    2        -0.495605       -13.4861       5.386362
    3    0        -1.470336       -40.0099       3.967934

 
  S                    hydrogenic:
 
  List of hydrogenic basis orbitals: 
    n    l      effective z      eigenvalue [eV]  inner max. [A]     outer max. [A]     outer radius [A]   
    2    1         1.800000       -11.0118           1.168531           1.168531           5.452614
    4    3         7.000000       -41.6672           1.212182           1.212182           5.066981
    4    2         6.200000       -32.6848           0.582121           1.814567           5.386362
    5    4        10.800000       -63.4785           1.227092           1.227092           4.766538
 
 
  Mo                   ion:

  List of free ionic orbitals and eigenvalues:
    n    l      energy [Ha]    energy [eV]
    1    0      -746.048685    -20301.0176
    2    0      -103.980912     -2829.4646
    3    0       -18.206601      -495.4268
    4    0        -3.040545       -82.7374
    2    1       -93.001013     -2530.6863
    3    1       -14.625827      -397.9890
    4    1        -2.084855       -56.7318
    3    2        -8.808854      -239.7011
    4    2        -0.765435       -20.8285


  List of ionic basis orbitals and eigenvalues:
    n    l      energy [Ha]    energy [eV]    outer radius [A]
    5    1        -0.465587       -12.6693       5.456393
    5    0        -0.650331       -17.6964       5.390095

 
  Mo                   hydrogenic:
 
  List of hydrogenic basis orbitals: 
    n    l      effective z      eigenvalue [eV]  inner max. [A]     outer max. [A]     outer radius [A]   
    4    3         8.400000       -60.0010           1.009788           1.009788           4.487018
    3    2         2.800000       -11.8048           1.687401           1.687401           5.456393
    5    4        12.000000       -78.3687           1.100005           1.100005           4.432498
 
  Creating atomic-like basis functions for current effective potential.

  Species S                   :

  List of atomic basis orbitals and eigenvalues:
    n    l      energy [Ha]    energy [eV]    outer radius [A]
    1    0       -88.680731     -2413.1255       0.682391
    2    0        -7.781719      -211.7513       2.289014
    3    0        -0.633662       -17.2428       5.256262
    2    1        -5.751976      -156.5192       2.555240
    3    1        -0.257086        -6.9957       5.386362


  Species Mo                  :

  List of atomic basis orbitals and eigenvalues:
    n    l      energy [Ha]    energy [eV]    outer radius [A]
    1    0      -745.344654    -20281.8600       0.247552
    2    0      -103.288246     -2810.6162       0.682864
    3    0       -17.516687      -476.6533       1.626637
    4    0        -2.358559       -64.1796       4.220963
    5    0        -0.145159        -3.9500       5.456393
    2    1       -92.308627     -2511.8455       0.699766
    3    1       -13.936005      -379.2180       1.793761
    4    1        -1.408138       -38.3174       4.828511
    3    2        -8.119011      -220.9295       2.181285
    4    2        -0.132984        -3.6187       5.390095

  Assembling full basis from fixed parts.
  | Species S :   atomic orbital   1 s accepted.
  | Species S :   atomic orbital   2 s accepted.
  | Species S :    ionic orbital   3 s accepted.
  | Species S :   atomic orbital   3 s accepted.
  | Species S :   atomic orbital   2 p accepted.
  | Species S :   atomic orbital   3 p accepted.
  | Species S :    hydro orbital   2 p accepted.
  | Species S :    ionic orbital   3 d accepted.
  | Species S :    hydro orbital   4 d accepted.
  | Species S :    hydro orbital   4 f accepted.
  | Species S :    hydro orbital   5 g accepted.
  | Species Mo :   atomic orbital   1 s accepted.
  | Species Mo :   atomic orbital   2 s accepted.
  | Species Mo :   atomic orbital   3 s accepted.
  | Species Mo :   atomic orbital   4 s accepted.
  | Species Mo :    ionic orbital   5 s accepted.
  | Species Mo :   atomic orbital   5 s accepted.
  | Species Mo :   atomic orbital   2 p accepted.
  | Species Mo :   atomic orbital   3 p accepted.
  | Species Mo :   atomic orbital   4 p accepted.
  | Species Mo :    ionic orbital   5 p accepted.
  | Species Mo :   atomic orbital   3 d accepted.
  | Species Mo :   atomic orbital   4 d accepted.
  | Species Mo :    hydro orbital   3 d accepted.
  | Species Mo :    hydro orbital   4 f accepted.
  | Species Mo :    hydro orbital   5 g accepted.
 
  Basis size parameters after reduction:
  | Total number of radial functions:       26
  | Total number of basis functions :      312
 
  Per-task memory consumption for arrays in subroutine allocate_ext:
  |           9.566776MB.
  Testing on-site integration grid accuracy.
  |  Species  Function  <phi|h_atom|phi> (log., in eV)  <phi|h_atom|phi> (rad., in eV)
           1        1              -2413.1254568977              -2413.1254096663
           1        2               -211.7513411281               -211.7513404762
           1        3                -16.9725280787                -16.9725279206
           1        4                  7.6024436204                  7.6024549059
           1        5               -156.5192206929               -156.5192205451
           1        6                 -6.9959757887                 -6.9959777655
           1        7                  6.8896462808                  6.8895564741
           1        8                  6.0214250550                  6.0214220200
           1        9                 19.6206468977                 19.6206494558
           1       10                 24.7008710786                 24.7008710738
           1       11                 47.5292252001                 47.5292260486
           2       12             -20281.8599610543             -20281.8584300616
           2       13              -2810.6161812280              -2810.6161551921
           2       14               -476.6533163555               -476.6533136395
           2       15                -64.1796433667                -64.1796426456
           2       16                 -3.3691762756                 -3.3691802887
           2       17                  4.4704608512                  4.4699102345
           2       18              -2511.8455406047              -2511.8455385741
           2       19               -379.2179896350               -379.2179882338
           2       20                -38.3173891619                -38.3173886619
           2       21                  0.2493245095                  0.2492931069
           2       22               -220.9295301098               -220.9295297081
           2       23                 -3.6195697699                 -3.6195754704
           2       24                  7.1428000922                  7.1426882355
           2       25                 23.3975871087                 23.3975871819
           2       26                 50.2449608881                 50.2449608586

  Preparing densities etc. for the partition functions (integrals / Hartree potential).
 Frequency grid relative error: 0.12418110983958286E-009                        
   
 Will use parallel mode: atoms     

  Preparations completed.
  max(cpu_time)          :      0.970 s.
  Wall clock time (cpu1) :      1.641 s.
------------------------------------------------------------

------------------------------------------------------------
          Begin self-consistency loop: Initialization.

          Date     :  20220216, Time     :  064802.455
------------------------------------------------------------

  Initializing index lists of integration centers etc. from given atomic structure:
  | Number of centers in hartree potential         :         8
  | Number of centers in hartree multipole         :         8
  | Number of centers in electron density summation:         8
  | Number of centers in basis integrals           :         8
  | Number of centers in integrals                 :         8
  | Number of centers in hamiltonian               :         8

  Initializing relaxation algorithms.
  Finished initialization of distributed Hessian storage.
  | Global dimension:        24
  | BLACS block size:         1
  | Number of workers:       24

  * Using 160 tasks for Scalapack Eigenvalue solver.
  Detailed listing of tasks and assigned k-points:
  (for non-periodic systems, the "k-point" denotes an internal label only)
   Task     0 k-point     1 on co6620
   Task     1 k-point     1 on co6620
   Task     2 k-point     1 on co6620
   Task     3 k-point     1 on co6620
   Task     4 k-point     1 on co6620
   Task     5 k-point     1 on co6620
   Task     6 k-point     1 on co6620
   Task     7 k-point     1 on co6620
   Task     8 k-point     1 on co6620
   Task     9 k-point     1 on co6620
   Task    10 k-point     1 on co6620
   Task    11 k-point     1 on co6620
   Task    12 k-point     1 on co6620
   Task    13 k-point     1 on co6620
   Task    14 k-point     1 on co6620
   Task    15 k-point     1 on co6620
   Task    16 k-point     1 on co6620
   Task    17 k-point     1 on co6620
   Task    18 k-point     1 on co6620
   Task    19 k-point     1 on co6620
   Task    20 k-point     1 on co6620
   Task    21 k-point     1 on co6620
   Task    22 k-point     1 on co6620
   Task    23 k-point     1 on co6620
   Task    24 k-point     1 on co6620
   Task    25 k-point     1 on co6620
   Task    26 k-point     1 on co6620
   Task    27 k-point     1 on co6620
   Task    28 k-point     1 on co6620
   Task    29 k-point     1 on co6620
   Task    30 k-point     1 on co6620
   Task    31 k-point     1 on co6620
   Task    32 k-point     1 on co6620
   Task    33 k-point     1 on co6620
   Task    34 k-point     1 on co6620
   Task    35 k-point     1 on co6620
   Task    36 k-point     1 on co6620
   Task    37 k-point     1 on co6620
   Task    38 k-point     1 on co6620
   Task    39 k-point     1 on co6620
   Task    40 k-point     1 on co6621
   Task    41 k-point     1 on co6621
   Task    42 k-point     1 on co6621
   Task    43 k-point     1 on co6621
   Task    44 k-point     1 on co6621
   Task    45 k-point     1 on co6621
   Task    46 k-point     1 on co6621
   Task    47 k-point     1 on co6621
   Task    48 k-point     1 on co6621
   Task    49 k-point     1 on co6621
   Task    50 k-point     1 on co6621
   Task    51 k-point     1 on co6621
   Task    52 k-point     1 on co6621
   Task    53 k-point     1 on co6621
   Task    54 k-point     1 on co6621
   Task    55 k-point     1 on co6621
   Task    56 k-point     1 on co6621
   Task    57 k-point     1 on co6621
   Task    58 k-point     1 on co6621
   Task    59 k-point     1 on co6621
   Task    60 k-point     1 on co6621
   Task    61 k-point     1 on co6621
   Task    62 k-point     1 on co6621
   Task    63 k-point     1 on co6621
   Task    64 k-point     1 on co6621
   Task    65 k-point     1 on co6621
   Task    66 k-point     1 on co6621
   Task    67 k-point     1 on co6621
   Task    68 k-point     1 on co6621
   Task    69 k-point     1 on co6621
   Task    70 k-point     1 on co6621
   Task    71 k-point     1 on co6621
   Task    72 k-point     1 on co6621
   Task    73 k-point     1 on co6621
   Task    74 k-point     1 on co6621
   Task    75 k-point     1 on co6621
   Task    76 k-point     1 on co6621
   Task    77 k-point     1 on co6621
   Task    78 k-point     1 on co6621
   Task    79 k-point     1 on co6621
   Task    80 k-point     1 on co6625
   Task    81 k-point     1 on co6625
   Task    82 k-point     1 on co6625
   Task    83 k-point     1 on co6625
   Task    84 k-point     1 on co6625
   Task    85 k-point     1 on co6625
   Task    86 k-point     1 on co6625
   Task    87 k-point     1 on co6625
   Task    88 k-point     1 on co6625
   Task    89 k-point     1 on co6625
   Task    90 k-point     1 on co6625
   Task    91 k-point     1 on co6625
   Task    92 k-point     1 on co6625
   Task    93 k-point     1 on co6625
   Task    94 k-point     1 on co6625
   Task    95 k-point     1 on co6625
   Task    96 k-point     1 on co6625
   Task    97 k-point     1 on co6625
   Task    98 k-point     1 on co6625
   Task    99 k-point     1 on co6625
   Task   100 k-point     1 on co6625
   Task   101 k-point     1 on co6625
   Task   102 k-point     1 on co6625
   Task   103 k-point     1 on co6625
   Task   104 k-point     1 on co6625
   Task   105 k-point     1 on co6625
   Task   106 k-point     1 on co6625
   Task   107 k-point     1 on co6625
   Task   108 k-point     1 on co6625
   Task   109 k-point     1 on co6625
   Task   110 k-point     1 on co6625
   Task   111 k-point     1 on co6625
   Task   112 k-point     1 on co6625
   Task   113 k-point     1 on co6625
   Task   114 k-point     1 on co6625
   Task   115 k-point     1 on co6625
   Task   116 k-point     1 on co6625
   Task   117 k-point     1 on co6625
   Task   118 k-point     1 on co6625
   Task   119 k-point     1 on co6625
   Task   120 k-point     1 on co6633
   Task   121 k-point     1 on co6633
   Task   122 k-point     1 on co6633
   Task   123 k-point     1 on co6633
   Task   124 k-point     1 on co6633
   Task   125 k-point     1 on co6633
   Task   126 k-point     1 on co6633
   Task   127 k-point     1 on co6633
   Task   128 k-point     1 on co6633
   Task   129 k-point     1 on co6633
   Task   130 k-point     1 on co6633
   Task   131 k-point     1 on co6633
   Task   132 k-point     1 on co6633
   Task   133 k-point     1 on co6633
   Task   134 k-point     1 on co6633
   Task   135 k-point     1 on co6633
   Task   136 k-point     1 on co6633
   Task   137 k-point     1 on co6633
   Task   138 k-point     1 on co6633
   Task   139 k-point     1 on co6633
   Task   140 k-point     1 on co6633
   Task   141 k-point     1 on co6633
   Task   142 k-point     1 on co6633
   Task   143 k-point     1 on co6633
   Task   144 k-point     1 on co6633
   Task   145 k-point     1 on co6633
   Task   146 k-point     1 on co6633
   Task   147 k-point     1 on co6633
   Task   148 k-point     1 on co6633
   Task   149 k-point     1 on co6633
   Task   150 k-point     1 on co6633
   Task   151 k-point     1 on co6633
   Task   152 k-point     1 on co6633
   Task   153 k-point     1 on co6633
   Task   154 k-point     1 on co6633
   Task   155 k-point     1 on co6633
   Task   156 k-point     1 on co6633
   Task   157 k-point     1 on co6633
   Task   158 k-point     1 on co6633
   Task   159 k-point     1 on co6633
  Tasks:   160 split into     16 X     10 BLACS grid
  Calculating block size based on n_basis =          312  max_nprow =           16  max_npcol =           10
  ScaLAPACK block size set to:           16
  Allocating        0.008 MB for ovlp
  Allocating        0.008 MB for ham
  Allocating        0.008 MB for eigenvec
  Required Scalapack workspace - INTEGER:            1  REAL:             1
  Partitioning the integration grid into batches with parallel hashing+maxmin method.
  | Number of batches:     2684
  | Maximal batch size:     200
  | Minimal batch size:       1
  | Average batch size:      73.031
  | Standard deviation of batch sizes:      22.577

  Integration load balanced across   160 MPI tasks.
  Work distribution over tasks is as follows:
  Task     0 has       1236 integration points.
  Task     1 has       1189 integration points.
  Task     2 has       1238 integration points.
  Task     3 has       1182 integration points.
  Task     4 has       1249 integration points.
  Task     5 has       1201 integration points.
  Task     6 has       1250 integration points.
  Task     7 has       1204 integration points.
  Task     8 has       1246 integration points.
  Task     9 has       1190 integration points.
  Task    10 has       1204 integration points.
  Task    11 has       1190 integration points.
  Task    12 has       1234 integration points.
  Task    13 has       1198 integration points.
  Task    14 has       1235 integration points.
  Task    15 has       1187 integration points.
  Task    16 has       1278 integration points.
  Task    17 has       1235 integration points.
  Task    18 has       1219 integration points.
  Task    19 has       1182 integration points.
  Task    20 has       1249 integration points.
  Task    21 has       1279 integration points.
  Task    22 has       1207 integration points.
  Task    23 has       1251 integration points.
  Task    24 has       1193 integration points.
  Task    25 has       1188 integration points.
  Task    26 has       1198 integration points.
  Task    27 has       1203 integration points.
  Task    28 has       1182 integration points.
  Task    29 has       1234 integration points.
  Task    30 has       1196 integration points.
  Task    31 has       1214 integration points.
  Task    32 has       1218 integration points.
  Task    33 has       1326 integration points.
  Task    34 has       1227 integration points.
  Task    35 has       1219 integration points.
  Task    36 has       1234 integration points.
  Task    37 has       1184 integration points.
  Task    38 has       1348 integration points.
  Task    39 has       1238 integration points.
  Task    40 has       1191 integration points.
  Task    41 has       1279 integration points.
  Task    42 has       1344 integration points.
  Task    43 has       1240 integration points.
  Task    44 has       1234 integration points.
  Task    45 has       1233 integration points.
  Task    46 has       1232 integration points.
  Task    47 has       1192 integration points.
  Task    48 has       1201 integration points.
  Task    49 has       1236 integration points.
  Task    50 has       1277 integration points.
  Task    51 has       1187 integration points.
  Task    52 has       1237 integration points.
  Task    53 has       1192 integration points.
  Task    54 has       1309 integration points.
  Task    55 has       1232 integration points.
  Task    56 has       1187 integration points.
  Task    57 has       1185 integration points.
  Task    58 has       1210 integration points.
  Task    59 has       1183 integration points.
  Task    60 has       1265 integration points.
  Task    61 has       1188 integration points.
  Task    62 has       1237 integration points.
  Task    63 has       1228 integration points.
  Task    64 has       1187 integration points.
  Task    65 has       1179 integration points.
  Task    66 has       1235 integration points.
  Task    67 has       1185 integration points.
  Task    68 has       1236 integration points.
  Task    69 has       1184 integration points.
  Task    70 has       1208 integration points.
  Task    71 has       1186 integration points.
  Task    72 has       1205 integration points.
  Task    73 has       1189 integration points.
  Task    74 has       1231 integration points.
  Task    75 has       1191 integration points.
  Task    76 has       1278 integration points.
  Task    77 has       1200 integration points.
  Task    78 has       1196 integration points.
  Task    79 has       1178 integration points.
  Task    80 has       1205 integration points.
  Task    81 has       1183 integration points.
  Task    82 has       1247 integration points.
  Task    83 has       1209 integration points.
  Task    84 has       1191 integration points.
  Task    85 has       1215 integration points.
  Task    86 has       1301 integration points.
  Task    87 has       1231 integration points.
  Task    88 has       1252 integration points.
  Task    89 has       1236 integration points.
  Task    90 has       1239 integration points.
  Task    91 has       1236 integration points.
  Task    92 has       1239 integration points.
  Task    93 has       1190 integration points.
  Task    94 has       1204 integration points.
  Task    95 has       1276 integration points.
  Task    96 has       1185 integration points.
  Task    97 has       1231 integration points.
  Task    98 has       1185 integration points.
  Task    99 has       1207 integration points.
  Task   100 has       1234 integration points.
  Task   101 has       1236 integration points.
  Task   102 has       1186 integration points.
  Task   103 has       1220 integration points.
  Task   104 has       1179 integration points.
  Task   105 has       1227 integration points.
  Task   106 has       1192 integration points.
  Task   107 has       1227 integration points.
  Task   108 has       1234 integration points.
  Task   109 has       1194 integration points.
  Task   110 has       1192 integration points.
  Task   111 has       1280 integration points.
  Task   112 has       1239 integration points.
  Task   113 has       1286 integration points.
  Task   114 has       1237 integration points.
  Task   115 has       1267 integration points.
  Task   116 has       1262 integration points.
  Task   117 has       1234 integration points.
  Task   118 has       1191 integration points.
  Task   119 has       1209 integration points.
  Task   120 has       1195 integration points.
  Task   121 has       1220 integration points.
  Task   122 has       1318 integration points.
  Task   123 has       1231 integration points.
  Task   124 has       1241 integration points.
  Task   125 has       1231 integration points.
  Task   126 has       1200 integration points.
  Task   127 has       1233 integration points.
  Task   128 has       1189 integration points.
  Task   129 has       1311 integration points.
  Task   130 has       1211 integration points.
  Task   131 has       1233 integration points.
  Task   132 has       1181 integration points.
  Task   133 has       1232 integration points.
  Task   134 has       1202 integration points.
  Task   135 has       1283 integration points.
  Task   136 has       1182 integration points.
  Task   137 has       1207 integration points.
  Task   138 has       1280 integration points.
  Task   139 has       1197 integration points.
  Task   140 has       1252 integration points.
  Task   141 has       1233 integration points.
  Task   142 has       1187 integration points.
  Task   143 has       1206 integration points.
  Task   144 has       1190 integration points.
  Task   145 has       1183 integration points.
  Task   146 has       1200 integration points.
  Task   147 has       1279 integration points.
  Task   148 has       1254 integration points.
  Task   149 has       1348 integration points.
  Task   150 has       1275 integration points.
  Task   151 has       1236 integration points.
  Task   152 has       1274 integration points.
  Task   153 has       1237 integration points.
  Task   154 has       1230 integration points.
  Task   155 has       1229 integration points.
  Task   156 has       1276 integration points.
  Task   157 has       1241 integration points.
  Task   158 has       1185 integration points.
  Task   159 has       1234 integration points.
  Initializing partition tables, free-atom densities, potentials, etc. across the integration grid (initialize_grid_storage).
  | initialize_grid_storage: Actual outermost partition radius vs. multipole_radius_free
  | (-- VB: in principle, multipole_radius_free should be larger, hence this output)
  | Species        1: Confinement radius =              6.000000000000000 AA, multipole_radius_free =              6.012827091137924 AA.
  | Species        1: outer_partition_radius set to              6.012827091137924 AA .
  | Species        2: Confinement radius =              6.000000000000000 AA, multipole_radius_free =              6.016994434057369 AA.
  | Species        2: outer_partition_radius set to              6.016994434057369 AA .
  | The sparse table of interatomic distances needs          0.71 kbyte instead of         0.51 kbyte of memory.
  | Using the partition_type stratmann_smoother will reduce your memory usage.
  | Net number of integration points:   196016
  | of which are non-zero points    :   180764
  Renormalizing the initial density to the exact electron count on the 3D integration grid.
  | Initial density: Formal number of electrons (from input files) :     128.0000000000
  | Integrated number of electrons on 3D grid     :     127.9999764521
  | Charge integration error                      :      -0.0000235479
  | Normalization factor for density and gradient :       1.0000001840
  Renormalizing the free-atom superposition density to the exact electron count on the 3D integration grid.
  | Formal number of electrons (from input files) :     128.0000000000
  | Integrated number of electrons on 3D grid     :     127.9999764521
  | Charge integration error                      :      -0.0000235479
  | Normalization factor for density and gradient :       1.0000001840
  Obtaining max. number of non-zero basis functions in each batch (get_n_compute_maxes).
  | Maximal number of non-zero basis functions:      291 in task     0
  | Maximal number of non-zero basis functions:      292 in task     1
  | Maximal number of non-zero basis functions:      298 in task     2
  | Maximal number of non-zero basis functions:      289 in task     3
  | Maximal number of non-zero basis functions:      292 in task     4
  | Maximal number of non-zero basis functions:      301 in task     5
  | Maximal number of non-zero basis functions:      292 in task     6
  | Maximal number of non-zero basis functions:      302 in task     7
  | Maximal number of non-zero basis functions:      290 in task     8
  | Maximal number of non-zero basis functions:      303 in task     9
  | Maximal number of non-zero basis functions:      292 in task    10
  | Maximal number of non-zero basis functions:      292 in task    11
  | Maximal number of non-zero basis functions:      292 in task    12
  | Maximal number of non-zero basis functions:      292 in task    13
  | Maximal number of non-zero basis functions:      289 in task    14
  | Maximal number of non-zero basis functions:      289 in task    15
  | Maximal number of non-zero basis functions:      291 in task    16
  | Maximal number of non-zero basis functions:      304 in task    17
  | Maximal number of non-zero basis functions:      301 in task    18
  | Maximal number of non-zero basis functions:      289 in task    19
  | Maximal number of non-zero basis functions:      289 in task    20
  | Maximal number of non-zero basis functions:      292 in task    21
  | Maximal number of non-zero basis functions:      291 in task    22
  | Maximal number of non-zero basis functions:      288 in task    23
  | Maximal number of non-zero basis functions:      292 in task    24
  | Maximal number of non-zero basis functions:      286 in task    25
  | Maximal number of non-zero basis functions:      303 in task    26
  | Maximal number of non-zero basis functions:      303 in task    27
  | Maximal number of non-zero basis functions:      292 in task    28
  | Maximal number of non-zero basis functions:      291 in task    29
  | Maximal number of non-zero basis functions:      292 in task    30
  | Maximal number of non-zero basis functions:      292 in task    31
  | Maximal number of non-zero basis functions:      288 in task    32
  | Maximal number of non-zero basis functions:      295 in task    33
  | Maximal number of non-zero basis functions:      287 in task    34
  | Maximal number of non-zero basis functions:      292 in task    35
  | Maximal number of non-zero basis functions:      297 in task    36
  | Maximal number of non-zero basis functions:      304 in task    37
  | Maximal number of non-zero basis functions:      298 in task    38
  | Maximal number of non-zero basis functions:      304 in task    39
  | Maximal number of non-zero basis functions:      291 in task    40
  | Maximal number of non-zero basis functions:      294 in task    41
  | Maximal number of non-zero basis functions:      303 in task    42
  | Maximal number of non-zero basis functions:      295 in task    43
  | Maximal number of non-zero basis functions:      295 in task    44
  | Maximal number of non-zero basis functions:      292 in task    45
  | Maximal number of non-zero basis functions:      295 in task    46
  | Maximal number of non-zero basis functions:      289 in task    47
  | Maximal number of non-zero basis functions:      298 in task    48
  | Maximal number of non-zero basis functions:      291 in task    49
  | Maximal number of non-zero basis functions:      290 in task    50
  | Maximal number of non-zero basis functions:      292 in task    51
  | Maximal number of non-zero basis functions:      295 in task    52
  | Maximal number of non-zero basis functions:      292 in task    53
  | Maximal number of non-zero basis functions:      291 in task    54
[...]
  The "true" memory usage will be greater.
------------------------------------------------------------
  Obtaining max. number of non-zero basis functions in each batch .
  Evaluating KS electron density on previously omitted grid points.

  Entering Libmbd.
  Libmbd: VdW method: mbd-nl
  Libmbd: Evaluating kinetic energy density...

  Evaluating density matrix
  Finished density matrix calculation
  | Time :     0.001 s

  Libmbd: Performing Hirshfeld analysis...
  Libmbd: Calculating MBD energy...
  Libmbd: Evaluated energy: -0.94651409301951261E-002

  Leaving Libmbd.


  Total energy components:
  | Sum of eigenvalues            :       -1874.21427598 Ha      -50999.96529908 eV
  | XC energy correction          :        -108.96542677 Ha       -2965.10012494 eV
  | XC potential correction       :         202.43390321 Ha        5508.50677616 eV
  | Free-atom electrostatic energy:       -1415.37704853 Ha      -38514.36907990 eV
  | Hartree energy correction     :          -2.56021313 Ha         -69.66694398 eV
  | vdW energy correction         :          -0.00946514 Ha          -0.25755959 eV
  | Entropy correction            :           0.00000000 Ha           0.00000000 eV
  | ---------------------------
  | Total energy                  :       -3198.69252633 Ha      -87040.85223133 eV
  | Total energy, T -> 0          :       -3198.69252633 Ha      -87040.85223133 eV  <-- do not rely on this value for anything but (periodic) metals
  | Electronic free energy        :       -3198.69252633 Ha      -87040.85223133 eV

  Derived energy quantities:
  | Kinetic energy                :        3211.39533239 Ha       87386.51317105 eV
  | Electrostatic energy          :       -6204.55091976 Ha     -168834.42072744 eV
  | Energy correction for multipole
  | error in Hartree potential    :          -0.00423200 Ha          -0.11515857 eV
  | Sum of eigenvalues per atom                           :       -6374.99566239 eV
  | Total energy (T->0) per atom                          :      -10880.10652892 eV  <-- do not rely on this value for anything but (periodic) metals
  | Electronic free energy per atom                       :      -10880.10652892 eV

  atomic forces [eV/Ang]:
  -----------------------
  atom #    1
   Hellmann-Feynman              :  0.170698E+02 -0.904537E+01  0.317161E+02
   Ionic forces                  :  0.000000E+00  0.000000E+00  0.000000E+00
   Multipole                     :  0.390250E-01 -0.113269E-01 -0.730380E-01
   Hartree-Fock exchange         : -0.137168E+01  0.758565E+00 -0.303413E+01
   Hartree pot. SCF incomplete   :  0.202927E-03 -0.805534E-04 -0.216146E-03
   Pulay + GGA                   : -0.157229E+02  0.829206E+01 -0.286050E+02
   Van der Waals                 : -0.144385E-01  0.614755E-02 -0.367016E-02
   ----------------------------------------------------------------
   Total forces(   1)            :  0.709825E-05 -0.615637E-05 -0.227280E-04
  atom #    2
   Hellmann-Feynman              :  0.260721E+02  0.904507E+01 -0.248491E+02
   Ionic forces                  :  0.000000E+00  0.000000E+00  0.000000E+00
   Multipole                     :  0.145308E-01  0.113551E-01  0.815889E-01
   Hartree-Fock exchange         : -0.224599E+01 -0.758544E+00  0.245820E+01
   Hartree pot. SCF incomplete   :  0.132282E-03  0.784994E-04  0.277573E-03
   Pulay + GGA                   : -0.238261E+02 -0.829191E+01  0.223101E+02
   Van der Waals                 : -0.148652E-01 -0.614459E-02 -0.994119E-03
   ----------------------------------------------------------------
   Total forces(   2)            : -0.121248E-03 -0.893085E-04  0.438366E-04
  atom #    3
   Hellmann-Feynman              :  0.443556E+01  0.218445E+02  0.297022E+02
   Ionic forces                  :  0.000000E+00  0.000000E+00  0.000000E+00
   Multipole                     :  0.235505E-01  0.270563E-01 -0.755021E-01
   Hartree-Fock exchange         : -0.312652E+00 -0.183186E+01 -0.286504E+01
   Hartree pot. SCF incomplete   :  0.105396E-03  0.183032E-03 -0.237397E-03
   Pulay + GGA                   : -0.414074E+01 -0.200251E+02 -0.267592E+02
   Van der Waals                 : -0.585550E-02 -0.148363E-01 -0.230136E-02
   ----------------------------------------------------------------
   Total forces(   3)            : -0.374841E-04 -0.557027E-04 -0.572925E-04
  atom #    4
   Hellmann-Feynman              : -0.443546E+01  0.218445E+02 -0.297022E+02
   Ionic forces                  :  0.000000E+00  0.000000E+00  0.000000E+00
   Multipole                     : -0.235505E-01  0.270566E-01  0.755020E-01
   Hartree-Fock exchange         :  0.312644E+00 -0.183186E+01  0.286504E+01
   Hartree pot. SCF incomplete   : -0.105558E-03  0.183303E-03  0.237760E-03
   Pulay + GGA                   :  0.414065E+01 -0.200251E+02  0.267592E+02
   Van der Waals                 :  0.585543E-02 -0.148363E-01  0.230137E-02
   ----------------------------------------------------------------
   Total forces(   4)            :  0.365538E-04 -0.535225E-04  0.569692E-04
  atom #    5
   Hellmann-Feynman              : -0.170698E+02 -0.904531E+01 -0.317161E+02
   Ionic forces                  :  0.000000E+00  0.000000E+00  0.000000E+00
   Multipole                     : -0.390251E-01 -0.113268E-01  0.730380E-01
   Hartree-Fock exchange         :  0.137168E+01  0.758561E+00  0.303413E+01
   Hartree pot. SCF incomplete   : -0.203269E-03 -0.806902E-04  0.216519E-03
   Pulay + GGA                   :  0.157229E+02  0.829201E+01  0.286050E+02
   Van der Waals                 :  0.144385E-01  0.614749E-02  0.367016E-02
   ----------------------------------------------------------------
   Total forces(   5)            : -0.840653E-05 -0.642905E-05  0.219718E-04
  atom #    6
   Hellmann-Feynman              : -0.134368E+02 -0.218437E+02  0.268582E+02
   Ionic forces                  :  0.000000E+00  0.000000E+00  0.000000E+00
   Multipole                     :  0.120752E-02 -0.272029E-01 -0.791098E-01
   Hartree-Fock exchange         :  0.118660E+01  0.183185E+01 -0.262672E+01
   Hartree pot. SCF incomplete   : -0.242911E-04 -0.179082E-03 -0.262963E-03
   Pulay + GGA                   :  0.122428E+02  0.200245E+02 -0.241517E+02
   Van der Waals                 :  0.627979E-02  0.148334E-01 -0.371973E-03
   ----------------------------------------------------------------
   Total forces(   6)            :  0.186008E-04  0.118331E-03  0.592050E-04
  atom #    7
   Hellmann-Feynman              :  0.134367E+02 -0.218438E+02 -0.268582E+02
   Ionic forces                  :  0.000000E+00  0.000000E+00  0.000000E+00
   Multipole                     : -0.120762E-02 -0.272030E-01  0.791097E-01
   Hartree-Fock exchange         : -0.118659E+01  0.183185E+01  0.262672E+01
   Hartree pot. SCF incomplete   :  0.243386E-04 -0.179397E-03  0.263370E-03
   Pulay + GGA                   : -0.122427E+02  0.200246E+02  0.241517E+02
   Van der Waals                 : -0.627974E-02  0.148334E-01  0.371967E-03
   ----------------------------------------------------------------
   Total forces(   7)            : -0.181435E-04  0.117182E-03 -0.590528E-04
  atom #    8
   Hellmann-Feynman              : -0.260721E+02  0.904519E+01  0.248491E+02
   Ionic forces                  :  0.000000E+00  0.000000E+00  0.000000E+00
   Multipole                     : -0.145306E-01  0.113550E-01 -0.815889E-01
   Hartree-Fock exchange         :  0.224599E+01 -0.758556E+00 -0.245819E+01
   Hartree pot. SCF incomplete   : -0.132063E-03  0.783488E-04 -0.277129E-03
   Pulay + GGA                   :  0.238260E+02 -0.829201E+01 -0.223100E+02
   Van der Waals                 :  0.148652E-01 -0.614466E-02  0.994122E-03
   ----------------------------------------------------------------
   Total forces(   8)            :  0.123063E-03 -0.903748E-04 -0.431125E-04

  Timings for VdW correction (Tkatchenko-Scheffler 2009 or later):
  | CPU time:        0.037 s, Wall clock time:        0.037 s.
  Removing unitary transformations (pure translations, rotations) from forces on atoms.
  Atomic forces before filtering:
  | Net force on center of mass :   0.334520E-07 -0.659814E-04 -0.203327E-06 eV/A
  | Net torque on center of mass:   0.119300E-05  0.119813E-03  0.255016E-06 eV
  Atomic forces after filtering:
  | Net force on center of mass :   0.217781E-19 -0.435562E-19 -0.217781E-19 eV/A
  | Net torque on center of mass:  -0.159902E-18  0.230489E-19  0.691468E-19 eV

  Energy and forces in a compact form:
  | Total energy uncorrected      :         -0.870408522313343E+05 eV
  | Total energy corrected        :         -0.870408522313343E+05 eV  <-- do not rely on this value for anything but (periodic) metals
  | Electronic free energy        :         -0.870408522313343E+05 eV
  Total atomic forces (unitary forces cleaned) [eV/Ang]:
  |    1          0.296236625553420E-05          0.211302673760951E-05         -0.123253118537549E-04
  |    2         -0.120531900755037E-03         -0.810888441086513E-04          0.549191304789349E-04
  |    3         -0.405914253302697E-04         -0.474314676114943E-04         -0.533206494469622E-04
  |    4          0.396936948446260E-04         -0.452984393423614E-04          0.528312718195398E-04
  |    5         -0.429596468267150E-05          0.179689743038539E-05          0.117097376887632E-04
  |    6          0.168654812851101E-04          0.126604793738521E-03          0.545146908418915E-04
  |    7         -0.164574955773054E-04          0.125403105686750E-03         -0.540947732875254E-04
  |    8          0.122355243960013E-03         -0.820990725307594E-04         -0.542340962408869E-04

  ------------------------------------ 
  Start decomposition of the XC Energy 
  ------------------------------------ 
  X and C from original XC functional choice 
  Hartree-Fock Energy :        -48.281023953 Ha          -1313.793506830 eV
  X Energy            :       -200.514715590 Ha          -5456.283023831 eV
  C Energy            :         -5.012758654 Ha           -136.404103149 eV
  Total XC Energy     :       -205.527474244 Ha          -5592.687126980 eV
  ------------------------------------ 
  LDA X and C from self-consistent density 
  X Energy LDA        :       -185.578802546 Ha          -5049.856151125 eV
  C Energy LDA        :         -9.959523501 Ha           -271.012423410 eV
  ------------------------------------ 
  End decomposition of the XC Energy 
  ------------------------------------ 

------------------------------------------------------------
  Relaxation / MD: End force evaluation.       :  max(cpu_time)    wall_clock(cpu1)
  | Time for this force evaluation              :       10.960 s          10.987 s

------------------------------------------------------------
  Geometry optimization: Attempting to predict improved coordinates.

  Removing unitary transformations (pure translations, rotations) from forces on atoms.
  Atomic forces before filtering:
  | Net force on center of mass :   0.217781E-19 -0.435562E-19 -0.217781E-19 eV/A
  | Net torque on center of mass:  -0.159902E-18  0.230489E-19  0.691468E-19 eV
  Atomic forces after filtering:
  | Net force on center of mass :   0.000000E+00 -0.217781E-19  0.000000E+00 eV/A
  | Net torque on center of mass:  -0.331329E-19  0.000000E+00  0.691468E-19 eV
  Net remaining forces (excluding translations, rotations) in present geometry:
  || Forces on atoms   || =   0.126605E-03 eV/A.
  Maximum force component is  0.126605E-03 eV/A.
  Present geometry is converged.

------------------------------------------------------------
  Final atomic structure:
                         x [A]             y [A]             z [A]
            atom         2.23685485        5.77558970        7.67783489  S
            atom         2.39059482        7.57129305        6.71201853  S
            atom         0.98297060        8.84115941        7.47816496  S
            atom        -0.63688659        8.84116213        6.23033416  S
            atom        -1.89078344        5.77559786        6.03066561  S
            atom        -0.79055364        4.50574968        7.19594725  S
            atom         1.13661977        4.50574589        6.51255345  S
            atom        -2.04451637        7.57130228        6.99648114  S
------------------------------------------------------------

------------------------------------------------------------------------------
  Final output of selected total energy values:

  The following output summarizes some interesting total energy values
  at the end of a run (AFTER all relaxation, molecular dynamics, etc.).

  | Total energy of the DFT / Hartree-Fock s.c.f. calculation      :         -87040.852231334 eV
  | Final zero-broadening corrected energy (caution - metals only) :         -87040.852231334 eV
  | For reference only, the value of 1 Hartree used in FHI-aims is :             27.211384500 eV

  Before relying on these values, please be sure to understand exactly which
  total energy value is referred to by a given number. Different objects may
  all carry the same name 'total energy'. Definitions:

  Total energy of the DFT / Hartree-Fock s.c.f. calculation:
  | Note that this energy does not include ANY quantities calculated after the
  | s.c.f. cycle, in particular not ANY RPA, MP2, etc. many-body perturbation terms.

  Final zero-broadening corrected energy:
  | For metallic systems only, a broadening of the occupation numbers at the Fermi
  | level can be extrapolated back to zero broadening by an electron-gas inspired
  | formula. For all systems that are not real metals, this value can be
  | meaningless and should be avoided.

------------------------------------------------------------------------------
  Methods described in the following list of references were used in this FHI-aims run.
  If you publish the results, please make sure to cite these reference if they apply.
  FHI-aims is an academic code, and for our developers (often, Ph.D. students
  and postdocs), scientific credit in the community is essential.
  Thank you for helping us!

  For any use of FHI-aims, please cite:

    Volker Blum, Ralf Gehrke, Felix Hanke, Paula Havu, Ville Havu,
    Xinguo Ren, Karsten Reuter, and Matthias Scheffler
    'Ab initio molecular simulations with numeric atom-centered orbitals'
    Computer Physics Communications 180, 2175-2196 (2009)
    http://doi.org/10.1016/j.cpc.2009.06.022


  For Hartree-Fock, hybrid functionals, or many-body perturbation theory used in your run, please cite:

    Xinguo Ren, Patrick Rinke, Volker Blum, Juergen Wieferink, Alex Tkatchenko,
    Andrea Sanfilippo, Karsten Reuter, and Matthias Scheffler,
    'Resolution-of-identity approach to Hartree-Fock, hybrid density functionals,
    RPA, MP2, and GW with numeric atom-centered orbital basis functions'
    New Journal of Physics 14, 053020 (2012).
    http://doi.org/10.1088/1367-2630/14/5/053020


  The ELSI infrastructure was used in your run to solve the Kohn-Sham electronic structure.
  Please check out http://elsi-interchange.org to learn more.
  If scalability is important for your project, please acknowledge ELSI by citing:

    V. W-z. Yu, F. Corsetti, A. Garcia, W. P. Huhn, M. Jacquelin, W. Jia,
    B. Lange, L. Lin, J. Lu, W. Mi, A. Seifitokaldani, A. Vazquez-Mayagoitia,
    C. Yang, H. Yang, and V. Blum
    'ELSI: A unified software interface for Kohn-Sham electronic structure solvers'
    Computer Physics Communications 222, 267-285 (2018).
    http://doi.org/10.1016/j.cpc.2017.09.007


  For the real-space grid partitioning and parallelization used in this calculation, please cite:

    Ville Havu, Volker Blum, Paula Havu, and Matthias Scheffler,
    'Efficient O(N) integration for all-electron electronic structure calculation'
    'using numerically tabulated basis functions'
    Journal of Computational Physics 228, 8367-8379 (2009).
    http://doi.org/10.1016/j.jcp.2009.08.008


  The high-level electronic structure method used in your calculation
  employed our efficient localized resolution of identity for the Coulomb operator.
  Some calculations, especially large-scale hybrid density functional theory,
  are only possible thanks to this development. For this feature, please cite:

    Arvid Ihrig, Juergen Wieferink, Igor Ying Zhang, Matti Ropo, Xinguo Ren,
    Patrick Rinke, Matthias Scheffler, and Volker Blum,
    'Accurate localized resolution of identity approach for linear-scaling
    hybrid density functionals and for many-body perturbation theory'
    New Journal of Physics 117, 093020 (2015).
    http://doi.org/10.1088/1367-2630/17/9/093020

  Of course, there are many other important community references, e.g., those cited in the
  above references. Our list is limited to references that describe implementations in the
  FHI-aims code. The reason is purely practical (length of this list) - please credit others as well.

------------------------------------------------------------
          Leaving FHI-aims.
          Date     :  20220216, Time     :  064851.839

          Computational steps:
          | Number of self-consistency cycles          :           37
          | Number of SCF (re)initializations          :            4
          | Number of relaxation steps                 :            3

          Detailed time accounting                     :  max(cpu_time)    wall_clock(cpu1)
          | Total time                                  :       50.037 s          51.967 s
          | Preparation time                            :        0.970 s           1.641 s
          | Boundary condition initalization            :        0.003 s           0.004 s
          | Grid partitioning                           :        0.349 s           0.345 s
          | Preloading free-atom quantities on grid     :        0.065 s           0.096 s
          | Free-atom superposition energy              :        0.018 s           0.018 s
          | Total time for integrations                 :        0.985 s           1.001 s
          | Product basis setup: Total time             :       24.667 s          24.753 s
          | Total time evaluating exchange matrix       :       19.295 s          19.384 s
          | Total time for solution of K.-S. equations  :        0.958 s           1.099 s
          | Total time for EV reorthonormalization      :        0.033 s           0.034 s
          | Total time for density & force components   :        0.848 s           0.846 s
          | Total time for mixing                       :        0.052 s           0.053 s
          | Total time for Hartree multipole update     :        0.131 s           0.134 s
          | Total time for Hartree multipole sum        :        0.646 s           0.651 s
          | Total time for total energy evaluation      :        0.016 s           0.022 s
          | Total time NSC force correction             :        0.084 s           0.084 s
          | Total time for scaled ZORA corrections      :        0.000 s           0.000 s
          | Total time for vdW correction               :        0.186 s           0.309 s

          Partial memory accounting:
          | Residual value for overall tracked memory usage across tasks:     0.000000 MB (should be 0.000000 MB)
          | Peak values for overall tracked memory usage:
          |   Minimum:        8.196 MB (on task 142 after allocating hessian_basis_wave)
          |   Maximum:       19.327 MB (on task 116 after allocating hessian_basis_wave)
          |   Average:       13.100 MB
          | Largest tracked array allocation:
          |   Minimum:        3.410 MB (d_aux_mat on task   0)
          |   Maximum:        3.410 MB (d_aux_mat on task   0)
          |   Average:        3.410 MB
          Note:  These values currently only include a subset of arrays which are explicitly tracked.
          The "true" memory usage will be greater.

          Have a nice day.
------------------------------------------------------------
