------------------------------------------------------------
          Invoking FHI-aims ...

          When using FHI-aims, please cite the following reference:

            Volker Blum, Ralf Gehrke, Felix Hanke, Paula Havu,
            Ville Havu, Xinguo Ren, Karsten Reuter, and Matthias Scheffler,
            'Ab Initio Molecular Simulations with Numeric Atom-Centered Orbitals',
            Computer Physics Communications 180, 2175-2196 (2009)

          In addition, many other developments in FHI-aims are likely important for
          your particular application. A partial list of references is given at the end of
          this file. Thank you for giving credit to the authors of these developments.

          For any questions about FHI-aims, please visit our slack channel at

            https://fhi-aims.slack.com

          and our main development and support site at

            https://aims-git.rz-berlin.mpg.de .

          The latter site, in particular, has a wiki to collect information, as well
          as an issue tracker to log discussions, suggest improvements, and report issues
          or bugs. https://aims-git.rz-berlin.mpg.de is also the main development site
          of the project and all new and updated code versions can be obtained there.
          Please send an email to aims-coordinators@fhi-berlin.mpg.de and we will add
          you to these sites. They are for you and everyone is welcome there.

------------------------------------------------------------



  Date     :  20220913, Time     :  134453.370
  Time zero on CPU 1             :   0.321951400000000E+01  s.
  Internal wall clock time zero  :           432308693.370  s.

  FHI-aims created a unique identifier for this run for later identification
  aims_uuid : 57772429-FD23-4EE6-A0C2-C0F4C685E1BA

  Build configuration of the current instance of FHI-aims
  -------------------------------------------------------
  FHI-aims version      : 220117
  Commit number         : 0c0e6afe2
  CMake host system     : Linux-5.3.18-24.99-default
  CMake version         : 3.22.0
  Fortran compiler      : /mpcdf/soft/SLE_15/packages/x86_64/intel_oneapi/2021.4/mpi/2021.4.0/bin/mpiifort (Intel) version 2021.4.0.20210910
  Fortran compiler flags: -O3 -ip -fp-model precise
  C compiler            : /mpcdf/soft/SLE_15/packages/x86_64/intel/2021.4.0/bin/icc (Intel) version 2021.4.0.20210910
  C compiler flags      : -O3 -ip -fp-model precise
  C++ compiler          : /mpcdf/soft/SLE_15/packages/x86_64/intel/2021.4.0/bin/icpc (Intel) version 2021.4.0.20210910
  C++ compiler flags    : -O3 -ip -fp-model precise
  Using MPI
  Using ScaLAPACK
  Using LibXC
  Using i-PI
  Using RLSY
  Linking against: /mpcdf/soft/SLE_15/packages/x86_64/intel_oneapi/2021.4/mkl/latest/lib/intel64/libmkl_intel_lp64.so
                   /mpcdf/soft/SLE_15/packages/x86_64/intel_oneapi/2021.4/mkl/latest/lib/intel64/libmkl_sequential.so
                   /mpcdf/soft/SLE_15/packages/x86_64/intel_oneapi/2021.4/mkl/latest/lib/intel64/libmkl_core.so
                   /mpcdf/soft/SLE_15/packages/x86_64/intel_oneapi/2021.4/mkl/latest/lib/intel64/libmkl_blacs_intelmpi_lp64.so
                   /mpcdf/soft/SLE_15/packages/x86_64/intel_oneapi/2021.4/mkl/latest/lib/intel64/libmkl_scalapack_lp64.so

  Using      216 parallel tasks.
  Task        0 on host ravg1151 reporting.
  Task        1 on host ravg1151 reporting.
  Task        2 on host ravg1151 reporting.
  Task        3 on host ravg1151 reporting.
  Task        4 on host ravg1151 reporting.
  Task        5 on host ravg1151 reporting.
  Task        6 on host ravg1151 reporting.
  Task        7 on host ravg1151 reporting.
  Task        8 on host ravg1151 reporting.
  Task        9 on host ravg1151 reporting.
  Task       10 on host ravg1151 reporting.
  Task       11 on host ravg1151 reporting.
  Task       12 on host ravg1151 reporting.
  Task       13 on host ravg1151 reporting.
  Task       14 on host ravg1151 reporting.
  Task       15 on host ravg1151 reporting.
  Task       16 on host ravg1151 reporting.
  Task       17 on host ravg1151 reporting.
  Task       18 on host ravg1151 reporting.
  Task       19 on host ravg1151 reporting.
  Task       20 on host ravg1151 reporting.
  Task       21 on host ravg1151 reporting.
  Task       22 on host ravg1151 reporting.
  Task       23 on host ravg1151 reporting.
  Task       24 on host ravg1151 reporting.
  Task       25 on host ravg1151 reporting.
  Task       26 on host ravg1151 reporting.
  Task       27 on host ravg1151 reporting.
  Task       28 on host ravg1151 reporting.
  Task       29 on host ravg1151 reporting.
  Task       30 on host ravg1151 reporting.
  Task       31 on host ravg1151 reporting.
  Task       32 on host ravg1151 reporting.
  Task       33 on host ravg1151 reporting.
  Task       34 on host ravg1151 reporting.
  Task       35 on host ravg1151 reporting.
  Task       36 on host ravg1151 reporting.
  Task       37 on host ravg1151 reporting.
  Task       38 on host ravg1151 reporting.
  Task       39 on host ravg1151 reporting.
  Task       40 on host ravg1151 reporting.
  Task       41 on host ravg1151 reporting.
  Task       42 on host ravg1151 reporting.
  Task       43 on host ravg1151 reporting.
  Task       44 on host ravg1151 reporting.
  Task       45 on host ravg1151 reporting.
  Task       46 on host ravg1151 reporting.
  Task       47 on host ravg1151 reporting.
  Task       48 on host ravg1151 reporting.
  Task       49 on host ravg1151 reporting.
  Task       50 on host ravg1151 reporting.
  Task       51 on host ravg1151 reporting.
  Task       52 on host ravg1151 reporting.
  Task       53 on host ravg1151 reporting.
  Task       54 on host ravg1151 reporting.
  Task       55 on host ravg1151 reporting.
  Task       56 on host ravg1151 reporting.
  Task       57 on host ravg1151 reporting.
  Task       58 on host ravg1151 reporting.
  Task       59 on host ravg1151 reporting.
  Task       60 on host ravg1151 reporting.
  Task       61 on host ravg1151 reporting.
  Task       62 on host ravg1151 reporting.
  Task       63 on host ravg1151 reporting.
  Task       64 on host ravg1151 reporting.
  Task       65 on host ravg1151 reporting.
  Task       66 on host ravg1151 reporting.
  Task       67 on host ravg1151 reporting.
  Task       68 on host ravg1151 reporting.
  Task       69 on host ravg1151 reporting.
  Task       70 on host ravg1151 reporting.
  Task       71 on host ravg1151 reporting.
  Task       72 on host ravg1155 reporting.
  Task       73 on host ravg1155 reporting.
  Task       74 on host ravg1155 reporting.
  Task       75 on host ravg1155 reporting.
  Task       76 on host ravg1155 reporting.
  Task       77 on host ravg1155 reporting.
  Task       78 on host ravg1155 reporting.
  Task       79 on host ravg1155 reporting.
  Task       80 on host ravg1155 reporting.
  Task       81 on host ravg1155 reporting.
  Task       82 on host ravg1155 reporting.
  Task       83 on host ravg1155 reporting.
  Task       84 on host ravg1155 reporting.
  Task       85 on host ravg1155 reporting.
  Task       86 on host ravg1155 reporting.
  Task       87 on host ravg1155 reporting.
  Task       88 on host ravg1155 reporting.
  Task       89 on host ravg1155 reporting.
  Task       90 on host ravg1155 reporting.
  Task       91 on host ravg1155 reporting.
  Task       92 on host ravg1155 reporting.
  Task       93 on host ravg1155 reporting.
  Task       94 on host ravg1155 reporting.
  Task       95 on host ravg1155 reporting.
  Task       96 on host ravg1155 reporting.
  Task       97 on host ravg1155 reporting.
  Task       98 on host ravg1155 reporting.
  Task       99 on host ravg1155 reporting.
  Task      100 on host ravg1155 reporting.
  Task      101 on host ravg1155 reporting.
  Task      102 on host ravg1155 reporting.
  Task      103 on host ravg1155 reporting.
  Task      104 on host ravg1155 reporting.
  Task      105 on host ravg1155 reporting.
  Task      106 on host ravg1155 reporting.
  Task      107 on host ravg1155 reporting.
  Task      108 on host ravg1155 reporting.
  Task      109 on host ravg1155 reporting.
  Task      110 on host ravg1155 reporting.
  Task      111 on host ravg1155 reporting.
  Task      112 on host ravg1155 reporting.
  Task      113 on host ravg1155 reporting.
  Task      114 on host ravg1155 reporting.
  Task      115 on host ravg1155 reporting.
  Task      116 on host ravg1155 reporting.
  Task      117 on host ravg1155 reporting.
  Task      118 on host ravg1155 reporting.
  Task      119 on host ravg1155 reporting.
  Task      120 on host ravg1155 reporting.
  Task      121 on host ravg1155 reporting.
  Task      122 on host ravg1155 reporting.
  Task      123 on host ravg1155 reporting.
  Task      124 on host ravg1155 reporting.
  Task      125 on host ravg1155 reporting.
  Task      126 on host ravg1155 reporting.
  Task      127 on host ravg1155 reporting.
  Task      128 on host ravg1155 reporting.
  Task      129 on host ravg1155 reporting.
  Task      130 on host ravg1155 reporting.
  Task      131 on host ravg1155 reporting.
  Task      132 on host ravg1155 reporting.
  Task      133 on host ravg1155 reporting.
  Task      134 on host ravg1155 reporting.
  Task      135 on host ravg1155 reporting.
  Task      136 on host ravg1155 reporting.
  Task      137 on host ravg1155 reporting.
  Task      138 on host ravg1155 reporting.
  Task      139 on host ravg1155 reporting.
  Task      140 on host ravg1155 reporting.
  Task      141 on host ravg1155 reporting.
  Task      142 on host ravg1155 reporting.
  Task      143 on host ravg1155 reporting.
  Task      144 on host ravg1160 reporting.
  Task      145 on host ravg1160 reporting.
  Task      146 on host ravg1160 reporting.
  Task      147 on host ravg1160 reporting.
  Task      148 on host ravg1160 reporting.
  Task      149 on host ravg1160 reporting.
  Task      150 on host ravg1160 reporting.
  Task      151 on host ravg1160 reporting.
  Task      152 on host ravg1160 reporting.
  Task      153 on host ravg1160 reporting.
  Task      154 on host ravg1160 reporting.
  Task      155 on host ravg1160 reporting.
  Task      156 on host ravg1160 reporting.
  Task      157 on host ravg1160 reporting.
  Task      158 on host ravg1160 reporting.
  Task      159 on host ravg1160 reporting.
  Task      160 on host ravg1160 reporting.
  Task      161 on host ravg1160 reporting.
  Task      162 on host ravg1160 reporting.
  Task      163 on host ravg1160 reporting.
  Task      164 on host ravg1160 reporting.
  Task      165 on host ravg1160 reporting.
  Task      166 on host ravg1160 reporting.
  Task      167 on host ravg1160 reporting.
  Task      168 on host ravg1160 reporting.
  Task      169 on host ravg1160 reporting.
  Task      170 on host ravg1160 reporting.
  Task      171 on host ravg1160 reporting.
  Task      172 on host ravg1160 reporting.
  Task      173 on host ravg1160 reporting.
  Task      174 on host ravg1160 reporting.
  Task      175 on host ravg1160 reporting.
  Task      176 on host ravg1160 reporting.
  Task      177 on host ravg1160 reporting.
  Task      178 on host ravg1160 reporting.
  Task      179 on host ravg1160 reporting.
  Task      180 on host ravg1160 reporting.
  Task      181 on host ravg1160 reporting.
  Task      182 on host ravg1160 reporting.
  Task      183 on host ravg1160 reporting.
  Task      184 on host ravg1160 reporting.
  Task      185 on host ravg1160 reporting.
  Task      186 on host ravg1160 reporting.
  Task      187 on host ravg1160 reporting.
  Task      188 on host ravg1160 reporting.
  Task      189 on host ravg1160 reporting.
  Task      190 on host ravg1160 reporting.
  Task      191 on host ravg1160 reporting.
  Task      192 on host ravg1160 reporting.
  Task      193 on host ravg1160 reporting.
  Task      194 on host ravg1160 reporting.
  Task      195 on host ravg1160 reporting.
  Task      196 on host ravg1160 reporting.
  Task      197 on host ravg1160 reporting.
  Task      198 on host ravg1160 reporting.
  Task      199 on host ravg1160 reporting.
  Task      200 on host ravg1160 reporting.
  Task      201 on host ravg1160 reporting.
  Task      202 on host ravg1160 reporting.
  Task      203 on host ravg1160 reporting.
  Task      204 on host ravg1160 reporting.
  Task      205 on host ravg1160 reporting.
  Task      206 on host ravg1160 reporting.
  Task      207 on host ravg1160 reporting.
  Task      208 on host ravg1160 reporting.
  Task      209 on host ravg1160 reporting.
  Task      210 on host ravg1160 reporting.
  Task      211 on host ravg1160 reporting.
  Task      212 on host ravg1160 reporting.
  Task      213 on host ravg1160 reporting.
  Task      214 on host ravg1160 reporting.
  Task      215 on host ravg1160 reporting.

  Performing system and environment tests:
  | Environment variable OMP_NUM_THREADS correctly set to 1.
  | Checking for ScaLAPACK...
  | Testing pdtran()...
  | All pdtran() tests passed.

  Obtaining array dimensions for all initial allocations:
  
  -----------------------------------------------------------------------
  Parsing control.in (first pass over file, find array dimensions only).
  The contents of control.in will be repeated verbatim below
  unless switched off by setting 'verbatim_writeout .false.' .
  in the first line of control.in .
  -----------------------------------------------------------------------
  
  ##### Physical settings  ################
  xc                 pbe
  spin               collinear
  default_initial_moment 1
  charge      0.0
  relativistic       atomic_zora scalar
  #elsi_restart read
  # SCF settings
  #vdw_correction_hirshfeld
  occupation_type gaussian       0.01
  # k-grid settings  (to be adjusted)
  k_grid  2 2 1
  elsi_restart read_and_write 10
  empty_states 8
  include_spin_orbit non_self_consistent
  use_dipole_correction
  #output cube stm -0.5
  #mixer   pulay
  #n_max_pulay        12 # high for metal
  #charge_mix_param   0.07 #low for metal
  
  #output cube stm -0.5
  many_body_dispersion_nl    beta=0.81
  ################################################################################
  #
  #  FHI-aims code project
  # Volker Blum, Fritz Haber Institute Berlin, 2009
  #
  #  Suggested "tight" defaults for S atom (to be pasted into control.in file)
  #
  #  Revised Jan 04, 2011, following tests (SiC) done by Lydia Nemec:
  #     d and g functions of tier 2 now enabled by default.
  #
  ################################################################################
    species        S
  #     global species definitions
      nucleus             16
      mass                32.065
  #
      l_hartree           6
  #
      cut_pot             4.0          2.0  1.0
      basis_dep_cutoff    1e-4
  #
      radial_base         44 7.0
      radial_multiplier   2
      angular_grids       specified
        division   0.4665  110
        division   0.5810  194
        division   0.7139  302
        division   0.8274  434
  #      division   0.9105  590
  #      division   1.0975  770
  #      division   1.2028  974
  #      outer_grid  974
        outer_grid  434
  ################################################################################
  #
  #  Definition of "minimal" basis
  #
  ################################################################################
  #     valence basis states
      valence      3  s   2.
      valence      3  p   4.
  #     ion occupancy
      ion_occ      3  s   1.
      ion_occ      3  p   3.
  ################################################################################
  #
  #  Suggested additional basis functions. For production calculations,
  #  uncomment them one after another (the most important basis functions are
  #  listed first).
  #
  #  Constructed for dimers: 1.6 A, 1.9 A, 2.5 A, 3.25 A, 4.0 A
  #
  ################################################################################
  #  "First tier" - improvements: -652.81 meV to -45.53 meV
       ionic 3 d auto
       hydro 2 p 1.8
       hydro 4 f 7
       ionic 3 s auto
  #  "Second tier" - improvements: -30.20 meV to -1.74 meV
       hydro 4 d 6.2
       hydro 5 g 10.8
  #     hydro 4 p 4.9
  #     hydro 5 f 10
  #     hydro 1 s 0.8
  #  "Third tier" - improvements: -1.04 meV to -0.20 meV
  #     hydro 3 d 3.9
  #     hydro 3 d 2.7
  #     hydro 5 g 12
  #     hydro 4 p 10.4
  #     hydro 5 f 12.4
  #     hydro 2 s 1.9
  #  "Fourth tier" - improvements: -0.35 meV to -0.06 meV
  #     hydro 4 d 10.4
  #     hydro 4 p 7.2
  #     hydro 4 d 10
  #     hydro 5 g 19.2
  #     hydro 4 s 12
  
  ################################################################################
  #
  # For methods that use the localized form of the "resolution of identity" for
  # the two-electron Coulomb operator (RI_method LVL), particularly Hartree-Fock and
  # hybrid density functional calculations, the highest accuracy can be obtained by
  # uncommenting the line beginning with "for_aux"  below, thus adding an extra g radial
  # function to the construction of the product basis set for the expansion.
  # See Ref. New J. Phys. 17, 093020 (2015) for more information, particularly Figs. 1 and 6.
  #
  ################################################################################
  #
  # for_aux hydro 5 g 6.0
  ################################################################################
  #
  #  FHI-aims code project
  # Volker Blum, Fritz Haber Institute Berlin, 2009
  #
  #  Suggested "tight" defaults for Mo atom (to be pasted into control.in file)
  #
  ################################################################################
    species        Mo
  #     global species definitions
      nucleus             42
      mass                95.94
  #
      l_hartree           6
  #
      cut_pot             4.0  2.0  1.0
      basis_dep_cutoff    1e-4
  #
      radial_base         59 7.0
      radial_multiplier   2
      angular_grids specified
        division   0.3117   50
        division   0.6750  110
        division   1.0351  194
        division   1.2073  302
        division   1.6402  434
  #      division   1.9185  590
  #      division   2.0237  770
  #      division   2.0980  974
  #      division   2.7972 1202
  #      outer_grid  974
        outer_grid  434
  ################################################################################
  #
  #  Definition of "minimal" basis
  #
  ################################################################################
  #     valence basis states
      valence      5  s   1.
      valence      4  p   6.
      valence      4  d   5.
  #     ion occupancy
      ion_occ     5  s   0.
      ion_occ     4  p   6.
      ion_occ     4  d   4.
  ################################################################################
  #
  #  Suggested additional basis functions. For production calculations,
  #  uncomment them one after another (the most important basis functions are
  #  listed first).
  #
  #  Constructed for dimers: 1.675 A, 1.9 A, 2.375 A, 3.00 A, 4.00 A
  #
  ################################################################################
  #  "First tier"  - max. impr. -711.23  meV, min. impr. -21.07 meV
       hydro 4 f 8.4
       hydro 3 d 2.8
       ionic 5 p auto
       hydro 5 g 12
       ionic 5 s auto
  #  "Second tier" - max. impr. -39.38  meV, min. impr. -2.68 meV
  #     hydro 4 f 12.4
  #     hydro 3 d 3.3
  #     hydro 6 h 17.2
  #     hydro 4 f 7.6
  #     hydro 3 p 3.0
  #     hydro 1 s 0.65
  #  "Third tier"  - max. impr. -5.50 meV, min. impr. -0.47 meV
  #     hydro 4 f 29.2
  #     hydro 5 g 11.2
  #     hydro 3 d 6.8
  #     hydro 6 h 14.8
  #     hydro 2 p 2.3
  #     hydro 4 s 3.8
  #  "Fourth tier"  - max. impr. -0.58 meV, min. impr. -0.19 meV
  #     hydro 5 f 6.8
  #     hydro 5 d 14.8
  #     hydro 6 s 7.8
  #     hydro 5 g 20.8
  #     hydro 5 d 10.4
  #     hydro 5 p 9.8
  #  Further functions - -0.17 meV and below
  #     hydro 5 d 3.2
  ################################################################################
  #
  #  FHI-aims code project
  # Volker Blum, Fritz Haber Institute Berlin, 2009
  #
  #  Suggested "tight" defaults for W atom (to be pasted into control.in file)
  #
  ################################################################################
    species          W
  #     global species definitions
      nucleus        74
      mass           183.84
  #
      l_hartree      6
  #
      cut_pot        4.0  2.0  1.0
      basis_dep_cutoff    1e-4
  #
      radial_base    71  7.0
      radial_multiplier  2
      angular_grids specified
        division   0.2901   50
        division   0.6986  110
        division   1.0528  194
        division   1.2659  302
        division   1.5223  434
  #      division   1.8111  590
  #      division   2.0105  770
  #      division   2.0413  974
  #      division   2.8804 1202
  #      outer_grid  974
        outer_grid  434
  ################################################################################
  #
  #  Definition of "minimal" basis
  #
  ################################################################################
  #     valence basis states
      valence      6  s   2.
      valence      5  p   6.
      valence      5  d   4.
      valence      4  f  14.
  #     ion occupancy
      ion_occ      6  s   1.
      ion_occ      5  p   6.
      ion_occ      5  d   3.
      ion_occ      4  f  14.
  ################################################################################
  #
  #  Suggested additional basis functions. For production calculations,
  #  uncomment them one after another (the most important basis functions are
  #  listed first).
  #
  #  Constructed for dimers: 1.775, 1.99, 2.50, 3.25, 4.50 AA
  #
  ################################################################################
  #
  #  "First tier" - improvements: -603.77 meV to -28.99 meV
       hydro 4 f 7.8
       hydro 4 d 5.8
       ionic 6 p auto
       hydro 5 g 12.4
       ionic 6 s auto
  #  "Second tier" - improvements: -28.30 meV to -1.31 meV
  #     hydro 6 h 16.8
  #     ionic 5 d auto
  #     hydro 4 f 8.6
  #     hydro 5 g 16.8
  #     hydro 5 d 8.4
  #     hydro 3 p 3.3
  #     hydro 1 s 0.55
  #  "Third tier" - max. impr. -1.79 meV, min. impr. -0.26 meV
  #     hydro 5 f 10.8
  #     hydro 5 g 34.4
  #     hydro 6 h 20.8
  #     hydro 5 g 12.8
  #     hydro 2 p 1.6
  #     hydro 4 s 4.7
  #     hydro 6 d 18.4
  #  "Fourth tier" -0.46 max. impr. - meV, min. impr. -0.09 meV
  #     hydro 6 h 21.6
  #     hydro 5 f 22.4
  #     hydro 4 f 4
  #     hydro 5 p 9.6
  #     hydro 6 d 17.2
  #     hydro 3 p 5.2
  #     hydro 5 g 4.7
  #     hydro 6 s 7.6
  ################################################################################
  #
  #  FHI-aims code project
  # Volker Blum, Fritz Haber Institute Berlin, 2009
  #
  #  Suggested "tight" defaults for Se atom (to be pasted into control.in file)
  #
  ################################################################################
    species        Se
  #     global species definitions
      nucleus             34
      mass                78.96
  #
      l_hartree           6
  #
      cut_pot             4.0          2.0  1.0
      basis_dep_cutoff    1e-4
  #
      radial_base         55 7.0
      radial_multiplier   2
      angular_grids       specified
        division   0.0830  110
        division   0.1357  194
        division   0.7377  302
        division   0.8610  434
  #      division   0.9640  590
  #      division   1.0773  770
  #      division   2.5539  974
  #      outer_grid  974
        outer_grid  434
  ################################################################################
  #
  #  Definition of "minimal" basis
  #
  ################################################################################
  #     valence basis states
      valence      4  s   2.
      valence      4  p   4.
      valence      3  d  10.
  #     ion occupancy
      ion_occ      4  s   1.
      ion_occ      4  p   3.
      ion_occ      3  d  10.
  ################################################################################
  #
  #  Suggested additional basis functions. For production calculations,
  #  uncomment them one after another (the most important basis functions are
  #  listed first).
  #
  #  Constructed for dimers: 1.85 A, 2.15 A, 2.50 A, 3.00 A, 4.00 A
  #
  ################################################################################
  #  "First tier" - improvements: -336.21 meV to -36.85 meV
       hydro 3 d 4.3
       hydro 2 p 1.6
       hydro 4 f 7.2
       ionic 4 s auto
  #  "Second tier" - improvements: -14.39 meV to -1.49 meV
  #     hydro 5 g 10.4
  #     hydro 4 p 4.5
  #     hydro 4 d 6.2
  #     hydro 4 f 11.2
  #     hydro 1 s 0.65
  #     hydro 6 h 15.2
  #  "Third tier" - improvements: -0.46 meV and below
  #     hydro 5 g 14.4
  #     ionic 4 d auto
  #     hydro 4 f 22.4
  #     hydro 5 f 7.4
  #     hydro 5 p 8
  #     hydro 5 s 9.4
  #  "Fourth tier" - improvements: -0.12 meV and below
  #     hydro 5 d 11.6
  #     hydro 6 h 18
  #     hydro 4 p 4
  #     hydro 5 f 16
  #     hydro 4 s 3.9
  
  
  
  -----------------------------------------------------------------------
  Completed first pass over input file control.in .
  -----------------------------------------------------------------------
  
  
  -----------------------------------------------------------------------
  Parsing geometry.in (first pass over file, find array dimensions only).
  The contents of geometry.in will be repeated verbatim below
  unless switched off by setting 'verbatim_writeout .false.' .
  in the first line of geometry.in .
  -----------------------------------------------------------------------
  
  #
  # This is the geometry file that corresponds to the current relaxation step.
  # If you do not want this file to be written, set the "write_restart_geometry" flag to .false.
  #  aims_uuid : C72573E3-FE4F-4363-A4EB-44514A5F3E14
  #
    set_vacuum_level        52.547529
  lattice_vector     16.41708800      0.00000000      0.00000000
  lattice_vector     -8.21125790     14.21583190      0.00000000
  lattice_vector      0.00000000      0.00000000     99.89650741
  atom       0.03136639      0.99135621      2.59957332 Mo
  atom       1.69536830      2.02514464      4.25154272 Se
  atom       1.69527640      2.02507082      0.94751005 Se
  atom      -1.59673574      3.81488763      2.59959310 Mo
  atom       0.04101461      4.80235420      4.27670764 Se
  atom       0.04088117      4.80232889      0.92241133 Se
  atom      -3.31878090      6.64668144      2.59960002 Mo
  atom      -1.71332498      7.61835014      4.28726079 Se
  atom      -1.71336497      7.61833791      0.91189250 Se
  atom      -4.96691179      9.48645697      2.59960539 Mo
  atom      -3.33789368     10.45484359      4.27858695 Se
  atom      -3.33794019     10.45478949      0.92055537 Se
  atom      -6.59321302     12.33377680      2.59957726 Mo
  atom      -4.95330103     13.31322905      4.26904369 Se
  atom      -4.95333839     13.31318783      0.93003639 Se
  atom       3.31199899      1.01339169      2.59950544 Mo
  atom       4.95181491      1.93085605      4.29873425 Se
  atom       4.95172266      1.93104258      0.90024912 Se
  atom       1.73815854      3.97600847      2.59947602 Mo
  atom       3.46702470      5.01172313      4.20562280 Se
  atom       3.46621594      5.01109401      0.99250225 Se
  atom      -0.06094243      6.70267888      2.59955528 Mo
  atom       1.53312341      7.64324170      4.27007987 Se
  atom       1.53310880      7.64329677      0.92899140 Se
  atom      -1.70063030      9.50978125      2.59956293 Mo
  atom      -0.06910393     10.46683682      4.28723593 Se
  atom      -0.06911160     10.46681624      0.91185847 Se
  atom      -3.31414658     12.34971823      2.59954024 Mo
  atom      -1.66768303     13.28873579      4.28117554 Se
  atom      -1.66769377     13.28870358      0.91785598 Se
  atom       6.57421641      0.95763529      2.59947686 Mo
  atom       8.25720075      1.84863634      4.27884844 Se
  atom       8.25725488      1.84868561      0.92021151 Se
  atom       5.07852597      3.80520597      2.59962915 Mo
  atom       6.70005962      4.66072754      4.31371194 Se
  atom       6.70007543      4.66075959      0.88544204 Se
  atom       4.77927155      7.28582289      4.20667405 Se
  atom       4.77910646      7.28481408      0.99352980 Se
  atom       1.55032000      9.49404723      2.59955325 Mo
  atom       3.24682165     10.35629244      4.27675638 Se
  atom       3.24689524     10.35618188      0.92239863 Se
  atom      -0.03071838     12.34297372      2.59952382 Mo
  atom       1.65097551     13.23477817      4.27893158 Se
  atom       1.65099298     13.23476872      0.92015769 Se
  atom       9.89348780      0.90927240      2.59953679 Mo
  atom      11.53131435      1.87205917      4.27863057 Se
  atom      11.53133518      1.87209082      0.92052036 Se
  atom       8.29705978      3.73889665      2.59956950 Mo
  atom       9.91397326      4.71882598      4.27891914 Se
  atom       9.91398974      4.71890055      0.92031626 Se
  atom       6.62990686      6.49277441      2.59952080 Mo
  atom       8.18936454      7.53994602      4.29892934 Se
  atom       8.18956714      7.53997447      0.90039805 Se
  atom       4.81129972      9.29992012      2.59967318 Mo
  atom       6.47920770     10.31276552      4.25167976 Se
  atom       6.47919882     10.31266690      0.94758843 Se
  atom       3.28277792     12.26816585      2.59954290 Mo
  atom       4.92618916     13.23308620      4.27441966 Se
  atom       4.92621496     13.23309205      0.92472160 Se
  atom      13.16598506      0.92853272      2.59957441 Mo
  atom      14.80678241      1.90918966      4.27443486 Se
  atom      14.80677250      1.90919975      0.92473353 Se
  atom      11.54586262      3.77186021      2.59960162 Mo
  atom      13.16716785      4.74441688      4.27898118 Se
  atom      13.16714702      4.74442188      0.92022161 Se
  atom       9.84379667      6.62189035      2.59966403 Mo
  atom      11.46058012      7.59111120      4.28128832 Se
  atom      11.46054436      7.59109558      0.91797718 Se
  atom       8.16385100      9.41878491      2.59965432 Mo
  atom       9.79599838     10.42391949      4.26913265 Se
  atom       9.79597213     10.42388254      0.93010412 Se
  atom       6.54208117     12.27054271      2.59958482 Mo
  atom       8.18707871     13.27860041      4.26530595 Se
  atom       8.18706389     13.27857594      0.93386159 Se
  #
  # What follows is the current estimated Hessian matrix constructed by the BFGS algorithm.
  # This is NOT the true Hessian matrix of the system.
  # If you do not want this information here, switch it off using the "hessian_to_restart_geometry" keyword.
  #
  
  -----------------------------------------------------------------------
  Completed first pass over input file geometry.in .
  -----------------------------------------------------------------------
  

  Basic array size parameters:
  | Number of species                 :        4
  | Number of atoms                   :       74
  | Number of lattice vectors         :        3
  | Max. basis fn. angular momentum   :        4
  | Max. atomic/ionic basis occupied n:        6
  | Max. number of basis fn. types    :        3
  | Max. radial fns per species/type  :       14
  | Max. logarithmic grid size        :     1483
  | Max. radial integration grid size :      143
  | Max. angular integration grid size:      434
  | Max. angular grid division number :        8
  | Radial grid for Hartree potential :     1483
  | Number of spin channels           :        2

------------------------------------------------------------
          Reading file control.in.
------------------------------------------------------------
  XC: Using PBE gradient-corrected functionals.
  Spin treatment: Spin density functional theory - collinear spins.
  Initial spin moment per atom:   1.0000
  Charge =   0.000000E+00: Neutral system requested explicitly.
  Scalar relativistic treatment of kinetic energy: on-site free-atom approximation to ZORA.
  Occupation type: Gaussian broadening, width =   0.100000E-01 eV.
  Found k-point grid:         2         2         1
  Number of empty states per atom:        8
  Calculating non-self-consistent second-variational spin-orbit coupling after scf-cycle
  You have request a SOC run with spin-polarization.
  symmetry_reduced_k_grid will be turned off.
  Using dipole correction.
  Using libMBD for calculating MBD and TS energies
 
  Reading configuration options for species S                   .
  | Found nuclear charge :  16.0000
  | Found atomic mass :    32.0650000000000      amu
  | Found l_max for Hartree potential  :   6
  | Found cutoff potl. onset [A], width [A], scale factor :    4.00000    2.00000    1.00000
  | Threshold for basis-dependent cutoff potential is   0.100000E-03
  | Found data for basic radial integration grid :    44 points, outermost radius =    7.000 A
  | Found multiplier for basic radial grid :   2
  | Found angular grid specification: user-specified.
  | Specified grid contains     5 separate shells.
  | Check grid settings after all constraints further below.
  | Found free-atom valence shell :  3 s   2.000
  | Found free-atom valence shell :  3 p   4.000
  | Found free-ion valence shell :  3 s   1.000
  | Found free-ion valence shell :  3 p   3.000
  | Found ionic basis function :  3 d , default cutoff radius.
  | Found hydrogenic basis function :  2 p   1.800
  | Found hydrogenic basis function :  4 f   7.000
  | Found ionic basis function :  3 s , default cutoff radius.
  | Found hydrogenic basis function :  4 d   6.200
  | Found hydrogenic basis function :  5 g  10.800
  Species S                   : Missing cutoff potential type.
  Defaulting to exp(1/x)/(1-x)^2 type cutoff potential.
  Species S : No 'logarithmic' tag. Using default grid for free atom:
  | Default logarithmic grid data [bohr] : 0.1000E-03 0.1000E+03 0.1012E+01
  | Will include ionic basis functions of  2.0-fold positive S                    ion.
  Species S : On-site basis accuracy parameter (for Gram-Schmidt orthonormalisation) not specified.
  Using default value basis_acc =  0.1000000E-03.
  Species S                   : Using default innermost maximum threshold i_radial=  2 for radial functions.
  Species S                   : Default cutoff onset for free atom density etc. : 0.40000000E+01 AA.
  Species S                   : Basic radial grid will be enhanced according to radial_multiplier =   2, to contain    89 grid points.
 
  Reading configuration options for species Mo                  .
  | Found nuclear charge :  42.0000
  | Found atomic mass :    95.9400000000000      amu
  | Found l_max for Hartree potential  :   6
  | Found cutoff potl. onset [A], width [A], scale factor :    4.00000    2.00000    1.00000
  | Threshold for basis-dependent cutoff potential is   0.100000E-03
  | Found data for basic radial integration grid :    59 points, outermost radius =    7.000 A
  | Found multiplier for basic radial grid :   2
  | Found angular grid specification: user-specified.
  | Specified grid contains     6 separate shells.
  | Check grid settings after all constraints further below.
  | Found free-atom valence shell :  5 s   1.000
  | Found free-atom valence shell :  4 p   6.000
  | Found free-atom valence shell :  4 d   5.000
  | Found free-ion valence shell :  5 s   0.000
  | Found free-ion valence shell :  4 p   6.000
  | Found free-ion valence shell :  4 d   4.000
  | Found hydrogenic basis function :  4 f   8.400
  | Found hydrogenic basis function :  3 d   2.800
  | Found ionic basis function :  5 p , default cutoff radius.
  | Found hydrogenic basis function :  5 g  12.000
  | Found ionic basis function :  5 s , default cutoff radius.
  Species Mo                  : Missing cutoff potential type.
  Defaulting to exp(1/x)/(1-x)^2 type cutoff potential.
  Species Mo: No 'logarithmic' tag. Using default grid for free atom:
  | Default logarithmic grid data [bohr] : 0.1000E-03 0.1000E+03 0.1012E+01
  | Will include ionic basis functions of  2.0-fold positive Mo                   ion.
  Species Mo: On-site basis accuracy parameter (for Gram-Schmidt orthonormalisation) not specified.
  Using default value basis_acc =  0.1000000E-03.
  Species Mo                  : Using default innermost maximum threshold i_radial=  2 for radial functions.
  Species Mo                  : Default cutoff onset for free atom density etc. : 0.40000000E+01 AA.
  Species Mo                  : Basic radial grid will be enhanced according to radial_multiplier =   2, to contain   119 grid points.
 
  Reading configuration options for species W                   .
  | Found nuclear charge :  74.0000
  | Found atomic mass :    183.840000000000      amu
  | Found l_max for Hartree potential  :   6
  | Found cutoff potl. onset [A], width [A], scale factor :    4.00000    2.00000    1.00000
  | Threshold for basis-dependent cutoff potential is   0.100000E-03
  | Found data for basic radial integration grid :    71 points, outermost radius =    7.000 A
  | Found multiplier for basic radial grid :   2
  | Found angular grid specification: user-specified.
  | Specified grid contains     6 separate shells.
  | Check grid settings after all constraints further below.
  | Found free-atom valence shell :  6 s   2.000
  | Found free-atom valence shell :  5 p   6.000
  | Found free-atom valence shell :  5 d   4.000
  | Found free-atom valence shell :  4 f  14.000
  | Found free-ion valence shell :  6 s   1.000
  | Found free-ion valence shell :  5 p   6.000
  | Found free-ion valence shell :  5 d   3.000
  | Found free-ion valence shell :  4 f  14.000
  | Found hydrogenic basis function :  4 f   7.800
  | Found hydrogenic basis function :  4 d   5.800
  | Found ionic basis function :  6 p , default cutoff radius.
  | Found hydrogenic basis function :  5 g  12.400
  | Found ionic basis function :  6 s , default cutoff radius.
  Species W                   : Missing cutoff potential type.
  Defaulting to exp(1/x)/(1-x)^2 type cutoff potential.
  Species W : No 'logarithmic' tag. Using default grid for free atom:
  | Default logarithmic grid data [bohr] : 0.1000E-03 0.1000E+03 0.1012E+01
  | Will include ionic basis functions of  2.0-fold positive W                    ion.
  Species W : On-site basis accuracy parameter (for Gram-Schmidt orthonormalisation) not specified.
  Using default value basis_acc =  0.1000000E-03.
  Species W                   : Using default innermost maximum threshold i_radial=  2 for radial functions.
  Species W                   : Default cutoff onset for free atom density etc. : 0.40000000E+01 AA.
  Species W                   : Basic radial grid will be enhanced according to radial_multiplier =   2, to contain   143 grid points.
 
  Reading configuration options for species Se                  .
  | Found nuclear charge :  34.0000
  | Found atomic mass :    78.9600000000000      amu
  | Found l_max for Hartree potential  :   6
  | Found cutoff potl. onset [A], width [A], scale factor :    4.00000    2.00000    1.00000
  | Threshold for basis-dependent cutoff potential is   0.100000E-03
  | Found data for basic radial integration grid :    55 points, outermost radius =    7.000 A
  | Found multiplier for basic radial grid :   2
  | Found angular grid specification: user-specified.
  | Specified grid contains     5 separate shells.
  | Check grid settings after all constraints further below.
  | Found free-atom valence shell :  4 s   2.000
  | Found free-atom valence shell :  4 p   4.000
  | Found free-atom valence shell :  3 d  10.000
  | Found free-ion valence shell :  4 s   1.000
  | Found free-ion valence shell :  4 p   3.000
  | Found free-ion valence shell :  3 d  10.000
  | Found hydrogenic basis function :  3 d   4.300
  | Found hydrogenic basis function :  2 p   1.600
  | Found hydrogenic basis function :  4 f   7.200
  | Found ionic basis function :  4 s , default cutoff radius.
  Species Se                  : Missing cutoff potential type.
  Defaulting to exp(1/x)/(1-x)^2 type cutoff potential.
  Species Se: No 'logarithmic' tag. Using default grid for free atom:
  | Default logarithmic grid data [bohr] : 0.1000E-03 0.1000E+03 0.1012E+01
  | Will include ionic basis functions of  2.0-fold positive Se                   ion.
  Species Se: On-site basis accuracy parameter (for Gram-Schmidt orthonormalisation) not specified.
  Using default value basis_acc =  0.1000000E-03.
  Species Se                  : Using default innermost maximum threshold i_radial=  2 for radial functions.
  Species Se                  : Default cutoff onset for free atom density etc. : 0.40000000E+01 AA.
  Species Se                  : Basic radial grid will be enhanced according to radial_multiplier =   2, to contain   111 grid points.
 
  Finished reading input file 'control.in'.
 
------------------------------------------------------------


------------------------------------------------------------
          Reading geometry description geometry.in.
------------------------------------------------------------
  Vacuum level in z-axis :   0.525475E+02
  | The smallest distance between any two atoms is         2.49326099 AA.
  | The first atom of this pair is atom number                     24 .
  | The second atom of this pair is atom number                    39 .
  | Wigner-Seitz cell of the first atom image           0     0     0 .
  | (The Wigner-Seitz cell of the second atom is 0 0 0  by definition.)

  Symmetry information by spglib:
  | Precision set to  0.1E-04
  | Number of Operations  : 1
  | Space group           : 1
  | International         : P1
  | Schoenflies           : C1^1
  Input structure read successfully.
  The structure contains       74 atoms,  and a total of       2708.000 electrons.

  Input geometry:
  | Unit cell:
  |       16.41708800        0.00000000        0.00000000
  |       -8.21125790       14.21583190        0.00000000
  |        0.00000000        0.00000000       99.89650741
  | Atomic structure:
  |       Atom                x [A]            y [A]            z [A]
  |    1: Species Mo            0.03136639        0.99135621        2.59957332
  |    2: Species Se            1.69536830        2.02514464        4.25154272
  |    3: Species Se            1.69527640        2.02507082        0.94751005
  |    4: Species Mo           -1.59673574        3.81488763        2.59959310
  |    5: Species Se            0.04101461        4.80235420        4.27670764
  |    6: Species Se            0.04088117        4.80232889        0.92241133
  |    7: Species Mo           -3.31878090        6.64668144        2.59960002
  |    8: Species Se           -1.71332498        7.61835014        4.28726079
  |    9: Species Se           -1.71336497        7.61833791        0.91189250
  |   10: Species Mo           -4.96691179        9.48645697        2.59960539
  |   11: Species Se           -3.33789368       10.45484359        4.27858695
  |   12: Species Se           -3.33794019       10.45478949        0.92055537
  |   13: Species Mo           -6.59321302       12.33377680        2.59957726
  |   14: Species Se           -4.95330103       13.31322905        4.26904369
  |   15: Species Se           -4.95333839       13.31318783        0.93003639
  |   16: Species Mo            3.31199899        1.01339169        2.59950544
  |   17: Species Se            4.95181491        1.93085605        4.29873425
  |   18: Species Se            4.95172266        1.93104258        0.90024912
  |   19: Species Mo            1.73815854        3.97600847        2.59947602
  |   20: Species Se            3.46702470        5.01172313        4.20562280
  |   21: Species Se            3.46621594        5.01109401        0.99250225
  |   22: Species Mo           -0.06094243        6.70267888        2.59955528
  |   23: Species Se            1.53312341        7.64324170        4.27007987
  |   24: Species Se            1.53310880        7.64329677        0.92899140
  |   25: Species Mo           -1.70063030        9.50978125        2.59956293
  |   26: Species Se           -0.06910393       10.46683682        4.28723593
  |   27: Species Se           -0.06911160       10.46681624        0.91185847
  |   28: Species Mo           -3.31414658       12.34971823        2.59954024
  |   29: Species Se           -1.66768303       13.28873579        4.28117554
  |   30: Species Se           -1.66769377       13.28870358        0.91785598
  |   31: Species Mo            6.57421641        0.95763529        2.59947686
  |   32: Species Se            8.25720075        1.84863634        4.27884844
  |   33: Species Se            8.25725488        1.84868561        0.92021151
  |   34: Species Mo            5.07852597        3.80520597        2.59962915
  |   35: Species Se            6.70005962        4.66072754        4.31371194
  |   36: Species Se            6.70007543        4.66075959        0.88544204
  |   37: Species Se            4.77927155        7.28582289        4.20667405
  |   38: Species Se            4.77910646        7.28481408        0.99352980
  |   39: Species Mo            1.55032000        9.49404723        2.59955325
  |   40: Species Se            3.24682165       10.35629244        4.27675638
  |   41: Species Se            3.24689524       10.35618188        0.92239863
  |   42: Species Mo           -0.03071838       12.34297372        2.59952382
  |   43: Species Se            1.65097551       13.23477817        4.27893158
  |   44: Species Se            1.65099298       13.23476872        0.92015769
  |   45: Species Mo            9.89348780        0.90927240        2.59953679
  |   46: Species Se           11.53131435        1.87205917        4.27863057
  |   47: Species Se           11.53133518        1.87209082        0.92052036
  |   48: Species Mo            8.29705978        3.73889665        2.59956950
  |   49: Species Se            9.91397326        4.71882598        4.27891914
  |   50: Species Se            9.91398974        4.71890055        0.92031626
  |   51: Species Mo            6.62990686        6.49277441        2.59952080
  |   52: Species Se            8.18936454        7.53994602        4.29892934
  |   53: Species Se            8.18956714        7.53997447        0.90039805
  |   54: Species Mo            4.81129972        9.29992012        2.59967318
  |   55: Species Se            6.47920770       10.31276552        4.25167976
  |   56: Species Se            6.47919882       10.31266690        0.94758843
  |   57: Species Mo            3.28277792       12.26816585        2.59954290
  |   58: Species Se            4.92618916       13.23308620        4.27441966
  |   59: Species Se            4.92621496       13.23309205        0.92472160
  |   60: Species Mo           13.16598506        0.92853272        2.59957441
  |   61: Species Se           14.80678241        1.90918966        4.27443486
  |   62: Species Se           14.80677250        1.90919975        0.92473353
  |   63: Species Mo           11.54586262        3.77186021        2.59960162
  |   64: Species Se           13.16716785        4.74441688        4.27898118
  |   65: Species Se           13.16714702        4.74442188        0.92022161
  |   66: Species Mo            9.84379667        6.62189035        2.59966403
  |   67: Species Se           11.46058012        7.59111120        4.28128832
  |   68: Species Se           11.46054436        7.59109558        0.91797718
  |   69: Species Mo            8.16385100        9.41878491        2.59965432
  |   70: Species Se            9.79599838       10.42391949        4.26913265
  |   71: Species Se            9.79597213       10.42388254        0.93010412
  |   72: Species Mo            6.54208117       12.27054271        2.59958482
  |   73: Species Se            8.18707871       13.27860041        4.26530595
  |   74: Species Se            8.18706389       13.27857594        0.93386159

  Lattice parameters for 3D lattice (in Angstroms) :    16.417088   16.416901   99.896507
  Angle(s) between unit vectors (in degrees)       :    90.000000   90.000000  120.011315


  Quantities derived from the lattice vectors:
  | Reciprocal lattice vector 1:  0.382722  0.221066  0.000000
  | Reciprocal lattice vector 2:  0.000000  0.441985  0.000000
  | Reciprocal lattice vector 3:  0.000000  0.000000  0.062897
  | Unit cell volume                               :   0.233141E+05  A^3

  Fractional coordinates:
                         L1                L2                L3
       atom_frac         0.03679016        0.06973607        0.02602266  Mo
       atom_frac         0.17452056        0.14245699        0.04255947  Se
       atom_frac         0.17451237        0.14245180        0.00948492  Se
       atom_frac         0.03696120        0.26835486        0.02602286  Mo
       atom_frac         0.17146279        0.33781732        0.04281138  Se
       atom_frac         0.17145377        0.33781554        0.00923367  Se
       atom_frac         0.03170067        0.46755487        0.02602293  Mo
       atom_frac         0.16367931        0.53590604        0.04291702  Se
       atom_frac         0.16367645        0.53590518        0.00912837  Se
       atom_frac         0.03122325        0.66731634        0.02602299  Mo
       atom_frac         0.16452164        0.73543664        0.04283020  Se
       atom_frac         0.16451690        0.73543283        0.00921509  Se
       atom_frac         0.03234095        0.86760851        0.02602270  Mo
       atom_frac         0.16669224        0.93650721        0.04273466  Se
       atom_frac         0.16668851        0.93650431        0.00931000  Se
       atom_frac         0.23739580        0.07128613        0.02602199  Mo
       atom_frac         0.36956028        0.13582434        0.04303188  Se
       atom_frac         0.36956122        0.13583747        0.00901182  Se
       atom_frac         0.24576558        0.27968877        0.02602169  Mo
       atom_frac         0.38751477        0.35254519        0.04209980  Se
       atom_frac         0.38744338        0.35250093        0.00993530  Se
       atom_frac         0.23211279        0.47149396        0.02602248  Mo
       atom_frac         0.36230322        0.53765701        0.04274504  Se
       atom_frac         0.36230426        0.53766089        0.00929954  Se
       atom_frac         0.23100008        0.66895707        0.02602256  Mo
       atom_frac         0.36405259        0.73628029        0.04291677  Se
       atom_frac         0.36405140        0.73627884        0.00912803  Se
       atom_frac         0.23263679        0.86872990        0.02602233  Mo
       atom_frac         0.36596451        0.93478425        0.04285611  Se
       atom_frac         0.36596272        0.93478199        0.00918807  Se
       atom_frac         0.43414274        0.06736400        0.02602170  Mo
       atom_frac         0.56800562        0.13004067        0.04283281  Se
       atom_frac         0.56801065        0.13004414        0.00921165  Se
       atom_frac         0.44322505        0.26767382        0.02602322  Mo
       atom_frac         0.57209654        0.32785472        0.04318181  Se
       atom_frac         0.57209863        0.32785697        0.00886359  Se
       atom_frac         0.54745774        0.51251470        0.04211032  Se
       atom_frac         0.54741219        0.51244374        0.00994559  Se
       atom_frac         0.42846885        0.66785027        0.02602246  Mo
       atom_frac         0.56214336        0.72850414        0.04281187  Se
       atom_frac         0.56214396        0.72849637        0.00923354  Se
       atom_frac         0.43240014        0.86825546        0.02602217  Mo
       atom_frac         0.56621268        0.93098865        0.04283365  Se
       atom_frac         0.56621341        0.93098799        0.00921111  Se
       atom_frac         0.63462509        0.06396195        0.02602230  Mo
       atom_frac         0.76826299        0.13168833        0.04283063  Se
       atom_frac         0.76826538        0.13169056        0.00921474  Se
       atom_frac         0.63693984        0.26300935        0.02602263  Mo
       atom_frac         0.76990702        0.33194160        0.04283352  Se
       atom_frac         0.76991065        0.33194685        0.00921270  Se
       atom_frac         0.63228154        0.45672842        0.02602214  Mo
       atom_frac         0.76411480        0.53039077        0.04303383  Se
       atom_frac         0.76412814        0.53039277        0.00901331  Se
       atom_frac         0.62027201        0.65419458        0.02602366  Mo
       atom_frac         0.75750348        0.72544228        0.04256084  Se
       atom_frac         0.75749947        0.72543534        0.00948570  Se
       atom_frac         0.63160028        0.86299317        0.02602236  Mo
       atom_frac         0.76565343        0.93086963        0.04278848  Se
       atom_frac         0.76565521        0.93087004        0.00925680  Se
       atom_frac         0.83463756        0.06531680        0.02602268  Mo
       atom_frac         0.96908516        0.13430024        0.04278863  Se
       atom_frac         0.96908491        0.13430095        0.00925692  Se
       atom_frac         0.83599116        0.26532814        0.02602295  Mo
       atom_frac         0.96896646        0.33374177        0.04283414  Se
       atom_frac         0.96896536        0.33374212        0.00921175  Se
       atom_frac         0.83258923        0.46581096        0.02602357  Mo
       atom_frac         0.96517173        0.53398994        0.04285724  Se
       atom_frac         0.96516900        0.53398884        0.00918928  Se
       atom_frac         0.82866519        0.66255601        0.02602348  Mo
       atom_frac         0.96344712        0.73326131        0.04273555  Se
       atom_frac         0.96344422        0.73325871        0.00931068  Se
       atom_frac         0.83021505        0.86316037        0.02602278  Mo
       atom_frac         0.96588256        0.93407129        0.04269725  Se
       atom_frac         0.96588079        0.93406957        0.00934829  Se

  Initial moments and charges:
  |  Atom   Moment         Charge        Species
  |     1   0.100000E+01   0.000000E+00   Mo
  |     2   0.100000E+01   0.000000E+00   Se
  |     3   0.100000E+01   0.000000E+00   Se
  |     4   0.100000E+01   0.000000E+00   Mo
  |     5   0.100000E+01   0.000000E+00   Se
  |     6   0.100000E+01   0.000000E+00   Se
  |     7   0.100000E+01   0.000000E+00   Mo
  |     8   0.100000E+01   0.000000E+00   Se
  |     9   0.100000E+01   0.000000E+00   Se
  |    10   0.100000E+01   0.000000E+00   Mo
  |    11   0.100000E+01   0.000000E+00   Se
  |    12   0.100000E+01   0.000000E+00   Se
  |    13   0.100000E+01   0.000000E+00   Mo
  |    14   0.100000E+01   0.000000E+00   Se
  |    15   0.100000E+01   0.000000E+00   Se
  |    16   0.100000E+01   0.000000E+00   Mo
  |    17   0.100000E+01   0.000000E+00   Se
  |    18   0.100000E+01   0.000000E+00   Se
  |    19   0.100000E+01   0.000000E+00   Mo
  |    20   0.100000E+01   0.000000E+00   Se
  |    21   0.100000E+01   0.000000E+00   Se
  |    22   0.100000E+01   0.000000E+00   Mo
  |    23   0.100000E+01   0.000000E+00   Se
  |    24   0.100000E+01   0.000000E+00   Se
  |    25   0.100000E+01   0.000000E+00   Mo
  |    26   0.100000E+01   0.000000E+00   Se
  |    27   0.100000E+01   0.000000E+00   Se
  |    28   0.100000E+01   0.000000E+00   Mo
  |    29   0.100000E+01   0.000000E+00   Se
  |    30   0.100000E+01   0.000000E+00   Se
  |    31   0.100000E+01   0.000000E+00   Mo
  |    32   0.100000E+01   0.000000E+00   Se
  |    33   0.100000E+01   0.000000E+00   Se
  |    34   0.100000E+01   0.000000E+00   Mo
  |    35   0.100000E+01   0.000000E+00   Se
  |    36   0.100000E+01   0.000000E+00   Se
  |    37   0.100000E+01   0.000000E+00   Se
  |    38   0.100000E+01   0.000000E+00   Se
  |    39   0.100000E+01   0.000000E+00   Mo
  |    40   0.100000E+01   0.000000E+00   Se
  |    41   0.100000E+01   0.000000E+00   Se
  |    42   0.100000E+01   0.000000E+00   Mo
  |    43   0.100000E+01   0.000000E+00   Se
  |    44   0.100000E+01   0.000000E+00   Se
  |    45   0.100000E+01   0.000000E+00   Mo
  |    46   0.100000E+01   0.000000E+00   Se
  |    47   0.100000E+01   0.000000E+00   Se
  |    48   0.100000E+01   0.000000E+00   Mo
  |    49   0.100000E+01   0.000000E+00   Se
  |    50   0.100000E+01   0.000000E+00   Se
  |    51   0.100000E+01   0.000000E+00   Mo
  |    52   0.100000E+01   0.000000E+00   Se
  |    53   0.100000E+01   0.000000E+00   Se
  |    54   0.100000E+01   0.000000E+00   Mo
  |    55   0.100000E+01   0.000000E+00   Se
  |    56   0.100000E+01   0.000000E+00   Se
  |    57   0.100000E+01   0.000000E+00   Mo
  |    58   0.100000E+01   0.000000E+00   Se
  |    59   0.100000E+01   0.000000E+00   Se
  |    60   0.100000E+01   0.000000E+00   Mo
  |    61   0.100000E+01   0.000000E+00   Se
  |    62   0.100000E+01   0.000000E+00   Se
  |    63   0.100000E+01   0.000000E+00   Mo
  |    64   0.100000E+01   0.000000E+00   Se
  |    65   0.100000E+01   0.000000E+00   Se
  |    66   0.100000E+01   0.000000E+00   Mo
  |    67   0.100000E+01   0.000000E+00   Se
  |    68   0.100000E+01   0.000000E+00   Se
  |    69   0.100000E+01   0.000000E+00   Mo
  |    70   0.100000E+01   0.000000E+00   Se
  |    71   0.100000E+01   0.000000E+00   Se
  |    72   0.100000E+01   0.000000E+00   Mo
  |    73   0.100000E+01   0.000000E+00   Se
  |    74   0.100000E+01   0.000000E+00   Se

 
  Finished reading input file 'control.in'.
 

------------------------------------------------------------
          Reading geometry description geometry.in.
------------------------------------------------------------
 
  Consistency checks for stacksize environment parameter are next.
 
  | Maximum stacksize for task 0: unlimited
  | Maximum stacksize for task 1: unlimited
  | Maximum stacksize for task 2: unlimited
  | Maximum stacksize for task 3: unlimited
  | Maximum stacksize for task 4: unlimited
  | Maximum stacksize for task 5: unlimited
  | Maximum stacksize for task 6: unlimited
  | Maximum stacksize for task 7: unlimited
  | Maximum stacksize for task 8: unlimited
  | Maximum stacksize for task 9: unlimited
  | Maximum stacksize for task 10: unlimited
  | Maximum stacksize for task 11: unlimited
  | Maximum stacksize for task 12: unlimited
  | Maximum stacksize for task 13: unlimited
  | Maximum stacksize for task 14: unlimited
  | Maximum stacksize for task 15: unlimited
  | Maximum stacksize for task 16: unlimited
  | Maximum stacksize for task 17: unlimited
  | Maximum stacksize for task 18: unlimited
  | Maximum stacksize for task 19: unlimited
  | Maximum stacksize for task 20: unlimited
  | Maximum stacksize for task 21: unlimited
  | Maximum stacksize for task 22: unlimited
  | Maximum stacksize for task 23: unlimited
  | Maximum stacksize for task 24: unlimited
  | Maximum stacksize for task 25: unlimited
  | Maximum stacksize for task 26: unlimited
  | Maximum stacksize for task 27: unlimited
  | Maximum stacksize for task 28: unlimited
  | Maximum stacksize for task 29: unlimited
  | Maximum stacksize for task 30: unlimited
  | Maximum stacksize for task 31: unlimited
  | Maximum stacksize for task 32: unlimited
  | Maximum stacksize for task 33: unlimited
  | Maximum stacksize for task 34: unlimited
  | Maximum stacksize for task 35: unlimited
  | Maximum stacksize for task 36: unlimited
  | Maximum stacksize for task 37: unlimited
  | Maximum stacksize for task 38: unlimited
  | Maximum stacksize for task 39: unlimited
  | Maximum stacksize for task 40: unlimited
  | Maximum stacksize for task 41: unlimited
  | Maximum stacksize for task 42: unlimited
  | Maximum stacksize for task 43: unlimited
  | Maximum stacksize for task 44: unlimited
  | Maximum stacksize for task 45: unlimited
  | Maximum stacksize for task 46: unlimited
  | Maximum stacksize for task 47: unlimited
  | Maximum stacksize for task 48: unlimited
  | Maximum stacksize for task 49: unlimited
  | Maximum stacksize for task 50: unlimited
  | Maximum stacksize for task 51: unlimited
  | Maximum stacksize for task 52: unlimited
  | Maximum stacksize for task 53: unlimited
  | Maximum stacksize for task 54: unlimited
  | Maximum stacksize for task 55: unlimited
  | Maximum stacksize for task 56: unlimited
  | Maximum stacksize for task 57: unlimited
  | Maximum stacksize for task 58: unlimited
  | Maximum stacksize for task 59: unlimited
  | Maximum stacksize for task 60: unlimited
  | Maximum stacksize for task 61: unlimited
  | Maximum stacksize for task 62: unlimited
  | Maximum stacksize for task 63: unlimited
  | Maximum stacksize for task 64: unlimited
  | Maximum stacksize for task 65: unlimited
  | Maximum stacksize for task 66: unlimited
  | Maximum stacksize for task 67: unlimited
  | Maximum stacksize for task 68: unlimited
  | Maximum stacksize for task 69: unlimited
  | Maximum stacksize for task 70: unlimited
  | Maximum stacksize for task 71: unlimited
  | Maximum stacksize for task 72: unlimited
  | Maximum stacksize for task 73: unlimited
  | Maximum stacksize for task 74: unlimited
  | Maximum stacksize for task 75: unlimited
  | Maximum stacksize for task 76: unlimited
  | Maximum stacksize for task 77: unlimited
  | Maximum stacksize for task 78: unlimited
  | Maximum stacksize for task 79: unlimited
  | Maximum stacksize for task 80: unlimited
  | Maximum stacksize for task 81: unlimited
  | Maximum stacksize for task 82: unlimited
  | Maximum stacksize for task 83: unlimited
  | Maximum stacksize for task 84: unlimited
  | Maximum stacksize for task 85: unlimited
  | Maximum stacksize for task 86: unlimited
  | Maximum stacksize for task 87: unlimited
  | Maximum stacksize for task 88: unlimited
  | Maximum stacksize for task 89: unlimited
  | Maximum stacksize for task 90: unlimited
  | Maximum stacksize for task 91: unlimited
  | Maximum stacksize for task 92: unlimited
  | Maximum stacksize for task 93: unlimited
  | Maximum stacksize for task 94: unlimited
  | Maximum stacksize for task 95: unlimited
  | Maximum stacksize for task 96: unlimited
  | Maximum stacksize for task 97: unlimited
  | Maximum stacksize for task 98: unlimited
  | Maximum stacksize for task 99: unlimited
  | Maximum stacksize for task 100: unlimited
  | Maximum stacksize for task 101: unlimited
  | Maximum stacksize for task 102: unlimited
  | Maximum stacksize for task 103: unlimited
  | Maximum stacksize for task 104: unlimited
  | Maximum stacksize for task 105: unlimited
  | Maximum stacksize for task 106: unlimited
  | Maximum stacksize for task 107: unlimited
  | Maximum stacksize for task 108: unlimited
  | Maximum stacksize for task 109: unlimited
  | Maximum stacksize for task 110: unlimited
  | Maximum stacksize for task 111: unlimited
  | Maximum stacksize for task 112: unlimited
  | Maximum stacksize for task 113: unlimited
  | Maximum stacksize for task 114: unlimited
  | Maximum stacksize for task 115: unlimited
  | Maximum stacksize for task 116: unlimited
  | Maximum stacksize for task 117: unlimited
  | Maximum stacksize for task 118: unlimited
  | Maximum stacksize for task 119: unlimited
  | Maximum stacksize for task 120: unlimited
  | Maximum stacksize for task 121: unlimited
  | Maximum stacksize for task 122: unlimited
  | Maximum stacksize for task 123: unlimited
  | Maximum stacksize for task 124: unlimited
  | Maximum stacksize for task 125: unlimited
  | Maximum stacksize for task 126: unlimited
  | Maximum stacksize for task 127: unlimited
  | Maximum stacksize for task 128: unlimited
  | Maximum stacksize for task 129: unlimited
  | Maximum stacksize for task 130: unlimited
  | Maximum stacksize for task 131: unlimited
  | Maximum stacksize for task 132: unlimited
  | Maximum stacksize for task 133: unlimited
  | Maximum stacksize for task 134: unlimited
  | Maximum stacksize for task 135: unlimited
  | Maximum stacksize for task 136: unlimited
  | Maximum stacksize for task 137: unlimited
  | Maximum stacksize for task 138: unlimited
  | Maximum stacksize for task 139: unlimited
  | Maximum stacksize for task 140: unlimited
  | Maximum stacksize for task 141: unlimited
  | Maximum stacksize for task 142: unlimited
  | Maximum stacksize for task 143: unlimited
  | Maximum stacksize for task 144: unlimited
  | Maximum stacksize for task 145: unlimited
  | Maximum stacksize for task 146: unlimited
  | Maximum stacksize for task 147: unlimited
  | Maximum stacksize for task 148: unlimited
  | Maximum stacksize for task 149: unlimited
  | Maximum stacksize for task 150: unlimited
  | Maximum stacksize for task 151: unlimited
  | Maximum stacksize for task 152: unlimited
  | Maximum stacksize for task 153: unlimited
  | Maximum stacksize for task 154: unlimited
  | Maximum stacksize for task 155: unlimited
  | Maximum stacksize for task 156: unlimited
  | Maximum stacksize for task 157: unlimited
  | Maximum stacksize for task 158: unlimited
  | Maximum stacksize for task 159: unlimited
  | Maximum stacksize for task 160: unlimited
  | Maximum stacksize for task 161: unlimited
  | Maximum stacksize for task 162: unlimited
  | Maximum stacksize for task 163: unlimited
  | Maximum stacksize for task 164: unlimited
  | Maximum stacksize for task 165: unlimited
  | Maximum stacksize for task 166: unlimited
  | Maximum stacksize for task 167: unlimited
  | Maximum stacksize for task 168: unlimited
  | Maximum stacksize for task 169: unlimited
  | Maximum stacksize for task 170: unlimited
  | Maximum stacksize for task 171: unlimited
  | Maximum stacksize for task 172: unlimited
  | Maximum stacksize for task 173: unlimited
  | Maximum stacksize for task 174: unlimited
  | Maximum stacksize for task 175: unlimited
  | Maximum stacksize for task 176: unlimited
  | Maximum stacksize for task 177: unlimited
  | Maximum stacksize for task 178: unlimited
  | Maximum stacksize for task 179: unlimited
  | Maximum stacksize for task 180: unlimited
  | Maximum stacksize for task 181: unlimited
  | Maximum stacksize for task 182: unlimited
  | Maximum stacksize for task 183: unlimited
  | Maximum stacksize for task 184: unlimited
  | Maximum stacksize for task 185: unlimited
  | Maximum stacksize for task 186: unlimited
  | Maximum stacksize for task 187: unlimited
  | Maximum stacksize for task 188: unlimited
  | Maximum stacksize for task 189: unlimited
  | Maximum stacksize for task 190: unlimited
  | Maximum stacksize for task 191: unlimited
  | Maximum stacksize for task 192: unlimited
  | Maximum stacksize for task 193: unlimited
  | Maximum stacksize for task 194: unlimited
  | Maximum stacksize for task 195: unlimited
  | Maximum stacksize for task 196: unlimited
  | Maximum stacksize for task 197: unlimited
  | Maximum stacksize for task 198: unlimited
  | Maximum stacksize for task 199: unlimited
  | Maximum stacksize for task 200: unlimited
  | Maximum stacksize for task 201: unlimited
  | Maximum stacksize for task 202: unlimited
  | Maximum stacksize for task 203: unlimited
  | Maximum stacksize for task 204: unlimited
  | Maximum stacksize for task 205: unlimited
  | Maximum stacksize for task 206: unlimited
  | Maximum stacksize for task 207: unlimited
  | Maximum stacksize for task 208: unlimited
  | Maximum stacksize for task 209: unlimited
  | Maximum stacksize for task 210: unlimited
  | Maximum stacksize for task 211: unlimited
  | Maximum stacksize for task 212: unlimited
  | Maximum stacksize for task 213: unlimited
  | Maximum stacksize for task 214: unlimited
  | Maximum stacksize for task 215: unlimited
  | Current stacksize for task 0: unlimited
  | Current stacksize for task 1: unlimited
  | Current stacksize for task 2: unlimited
  | Current stacksize for task 3: unlimited
  | Current stacksize for task 4: unlimited
  | Current stacksize for task 5: unlimited
  | Current stacksize for task 6: unlimited
  | Current stacksize for task 7: unlimited
  | Current stacksize for task 8: unlimited
  | Current stacksize for task 9: unlimited
  | Current stacksize for task 10: unlimited
  | Current stacksize for task 11: unlimited
  | Current stacksize for task 12: unlimited
  | Current stacksize for task 13: unlimited
  | Current stacksize for task 14: unlimited
  | Current stacksize for task 15: unlimited
  | Current stacksize for task 16: unlimited
  | Current stacksize for task 17: unlimited
  | Current stacksize for task 18: unlimited
  | Current stacksize for task 19: unlimited
  | Current stacksize for task 20: unlimited
  | Current stacksize for task 21: unlimited
  | Current stacksize for task 22: unlimited
  | Current stacksize for task 23: unlimited
  | Current stacksize for task 24: unlimited
  | Current stacksize for task 25: unlimited
  | Current stacksize for task 26: unlimited
  | Current stacksize for task 27: unlimited
  | Current stacksize for task 28: unlimited
  | Current stacksize for task 29: unlimited
  | Current stacksize for task 30: unlimited
  | Current stacksize for task 31: unlimited
  | Current stacksize for task 32: unlimited
  | Current stacksize for task 33: unlimited
  | Current stacksize for task 34: unlimited
  | Current stacksize for task 35: unlimited
  | Current stacksize for task 36: unlimited
  | Current stacksize for task 37: unlimited
  | Current stacksize for task 38: unlimited
  | Current stacksize for task 39: unlimited
  | Current stacksize for task 40: unlimited
  | Current stacksize for task 41: unlimited
  | Current stacksize for task 42: unlimited
  | Current stacksize for task 43: unlimited
  | Current stacksize for task 44: unlimited
  | Current stacksize for task 45: unlimited
  | Current stacksize for task 46: unlimited
  | Current stacksize for task 47: unlimited
  | Current stacksize for task 48: unlimited
  | Current stacksize for task 49: unlimited
  | Current stacksize for task 50: unlimited
  | Current stacksize for task 51: unlimited
  | Current stacksize for task 52: unlimited
  | Current stacksize for task 53: unlimited
  | Current stacksize for task 54: unlimited
  | Current stacksize for task 55: unlimited
  | Current stacksize for task 56: unlimited
  | Current stacksize for task 57: unlimited
  | Current stacksize for task 58: unlimited
  | Current stacksize for task 59: unlimited
  | Current stacksize for task 60: unlimited
  | Current stacksize for task 61: unlimited
  | Current stacksize for task 62: unlimited
  | Current stacksize for task 63: unlimited
  | Current stacksize for task 64: unlimited
  | Current stacksize for task 65: unlimited
  | Current stacksize for task 66: unlimited
  | Current stacksize for task 67: unlimited
  | Current stacksize for task 68: unlimited
  | Current stacksize for task 69: unlimited
  | Current stacksize for task 70: unlimited
  | Current stacksize for task 71: unlimited
  | Current stacksize for task 72: unlimited
  | Current stacksize for task 73: unlimited
  | Current stacksize for task 74: unlimited
  | Current stacksize for task 75: unlimited
  | Current stacksize for task 76: unlimited
  | Current stacksize for task 77: unlimited
  | Current stacksize for task 78: unlimited
  | Current stacksize for task 79: unlimited
  | Current stacksize for task 80: unlimited
  | Current stacksize for task 81: unlimited
  | Current stacksize for task 82: unlimited
  | Current stacksize for task 83: unlimited
  | Current stacksize for task 84: unlimited
  | Current stacksize for task 85: unlimited
  | Current stacksize for task 86: unlimited
  | Current stacksize for task 87: unlimited
  | Current stacksize for task 88: unlimited
  | Current stacksize for task 89: unlimited
  | Current stacksize for task 90: unlimited
  | Current stacksize for task 91: unlimited
  | Current stacksize for task 92: unlimited
  | Current stacksize for task 93: unlimited
  | Current stacksize for task 94: unlimited
  | Current stacksize for task 95: unlimited
  | Current stacksize for task 96: unlimited
  | Current stacksize for task 97: unlimited
  | Current stacksize for task 98: unlimited
  | Current stacksize for task 99: unlimited
  | Current stacksize for task 100: unlimited
  | Current stacksize for task 101: unlimited
  | Current stacksize for task 102: unlimited
  | Current stacksize for task 103: unlimited
  | Current stacksize for task 104: unlimited
  | Current stacksize for task 105: unlimited
  | Current stacksize for task 106: unlimited
  | Current stacksize for task 107: unlimited
  | Current stacksize for task 108: unlimited
  | Current stacksize for task 109: unlimited
  | Current stacksize for task 110: unlimited
  | Current stacksize for task 111: unlimited
  | Current stacksize for task 112: unlimited
  | Current stacksize for task 113: unlimited
  | Current stacksize for task 114: unlimited
  | Current stacksize for task 115: unlimited
  | Current stacksize for task 116: unlimited
  | Current stacksize for task 117: unlimited
  | Current stacksize for task 118: unlimited
  | Current stacksize for task 119: unlimited
  | Current stacksize for task 120: unlimited
  | Current stacksize for task 121: unlimited
  | Current stacksize for task 122: unlimited
  | Current stacksize for task 123: unlimited
  | Current stacksize for task 124: unlimited
  | Current stacksize for task 125: unlimited
  | Current stacksize for task 126: unlimited
  | Current stacksize for task 127: unlimited
  | Current stacksize for task 128: unlimited
  | Current stacksize for task 129: unlimited
  | Current stacksize for task 130: unlimited
  | Current stacksize for task 131: unlimited
  | Current stacksize for task 132: unlimited
  | Current stacksize for task 133: unlimited
  | Current stacksize for task 134: unlimited
  | Current stacksize for task 135: unlimited
  | Current stacksize for task 136: unlimited
  | Current stacksize for task 137: unlimited
  | Current stacksize for task 138: unlimited
  | Current stacksize for task 139: unlimited
  | Current stacksize for task 140: unlimited
  | Current stacksize for task 141: unlimited
  | Current stacksize for task 142: unlimited
  | Current stacksize for task 143: unlimited
  | Current stacksize for task 144: unlimited
  | Current stacksize for task 145: unlimited
  | Current stacksize for task 146: unlimited
  | Current stacksize for task 147: unlimited
  | Current stacksize for task 148: unlimited
  | Current stacksize for task 149: unlimited
  | Current stacksize for task 150: unlimited
  | Current stacksize for task 151: unlimited
  | Current stacksize for task 152: unlimited
  | Current stacksize for task 153: unlimited
  | Current stacksize for task 154: unlimited
  | Current stacksize for task 155: unlimited
  | Current stacksize for task 156: unlimited
  | Current stacksize for task 157: unlimited
  | Current stacksize for task 158: unlimited
  | Current stacksize for task 159: unlimited
  | Current stacksize for task 160: unlimited
  | Current stacksize for task 161: unlimited
  | Current stacksize for task 162: unlimited
  | Current stacksize for task 163: unlimited
  | Current stacksize for task 164: unlimited
  | Current stacksize for task 165: unlimited
  | Current stacksize for task 166: unlimited
  | Current stacksize for task 167: unlimited
  | Current stacksize for task 168: unlimited
  | Current stacksize for task 169: unlimited
  | Current stacksize for task 170: unlimited
  | Current stacksize for task 171: unlimited
  | Current stacksize for task 172: unlimited
  | Current stacksize for task 173: unlimited
  | Current stacksize for task 174: unlimited
  | Current stacksize for task 175: unlimited
  | Current stacksize for task 176: unlimited
  | Current stacksize for task 177: unlimited
  | Current stacksize for task 178: unlimited
  | Current stacksize for task 179: unlimited
  | Current stacksize for task 180: unlimited
  | Current stacksize for task 181: unlimited
  | Current stacksize for task 182: unlimited
  | Current stacksize for task 183: unlimited
  | Current stacksize for task 184: unlimited
  | Current stacksize for task 185: unlimited
  | Current stacksize for task 186: unlimited
  | Current stacksize for task 187: unlimited
  | Current stacksize for task 188: unlimited
  | Current stacksize for task 189: unlimited
  | Current stacksize for task 190: unlimited
  | Current stacksize for task 191: unlimited
  | Current stacksize for task 192: unlimited
  | Current stacksize for task 193: unlimited
  | Current stacksize for task 194: unlimited
  | Current stacksize for task 195: unlimited
  | Current stacksize for task 196: unlimited
  | Current stacksize for task 197: unlimited
  | Current stacksize for task 198: unlimited
  | Current stacksize for task 199: unlimited
  | Current stacksize for task 200: unlimited
  | Current stacksize for task 201: unlimited
  | Current stacksize for task 202: unlimited
  | Current stacksize for task 203: unlimited
  | Current stacksize for task 204: unlimited
  | Current stacksize for task 205: unlimited
  | Current stacksize for task 206: unlimited
  | Current stacksize for task 207: unlimited
  | Current stacksize for task 208: unlimited
  | Current stacksize for task 209: unlimited
  | Current stacksize for task 210: unlimited
  | Current stacksize for task 211: unlimited
  | Current stacksize for task 212: unlimited
  | Current stacksize for task 213: unlimited
  | Current stacksize for task 214: unlimited
  | Current stacksize for task 215: unlimited
 
  Consistency checks for the contents of control.in are next.
 
  MPI_IN_PLACE appears to work with this MPI implementation.
  | Keeping use_mpi_in_place .true. (see manual).
  Target number of points in a grid batch is not set. Defaulting to  100
  Method for grid partitioning is not set. Defaulting to parallel hash+maxmin partitioning.
  Batch size limit is not set. Defaulting to    200
  By default, will store active basis functions for each batch.
  If in need of memory, prune_basis_once .false. can be used to disable this option.
  communication_type for Hartree potential was not specified.
  Defaulting to calc_hartree .
  Defaulting to Pulay charge density mixer.
  Pulay mixer: Number of relevant iterations not set.
  Defaulting to    8 iterations.
  Pulay mixer: Number of initial linear mixing iterations not set.
  Defaulting to    0 iterations.
  Work space size for distributed Hartree potential not set.
  Defaulting to   0.200000E+03 MB.
  Mixing parameter for charge density mixing has not been set.
  Using default: charge_mix_param =     0.0500.
  The mixing parameter will be adjusted in iteration number     2 of the first full s.c.f. cycle only.
  Mixing parameter for spin density mixing has not been set.
  Using charge_mix_param as default:     0.0500.
  Algorithm-dependent basis array size parameters:
  | n_max_pulay                         :        8
  Maximum number of self-consistency iterations not provided.
  Presetting  1000 iterations.
  Presetting      1001 iterations before the initial mixing cycle
  is restarted anyway using the sc_init_iter criterion / keyword.
  Presetting a factor      1.000 between actual scf density residual
  and density convergence criterion sc_accuracy_rho below which sc_init_iter
  takes no effect.
 * No s.c.f. convergence criteria (sc_accuracy_*) were provided in control.in.
 * The run will proceed with a reasonable default guess, but please check whether.
 * the s.c.f. cycles seem to take too much or too little time.
  Calculation of forces was not defined in control.in. No forces will be calculated.
  Geometry relaxation not requested: no relaxation will be performed.
[...]
   3220       0.00000                       7.079520           7.089934             0.000004
   3221       0.00000                       7.092163           7.101170             0.011237
   3222       0.00000                       7.092167           7.101173             0.000003
   3223       0.00000                       7.115580           7.118074             0.016900
   3224       0.00000                       7.115587           7.118079             0.000006
   3225       0.00000                       7.125626           7.131996             0.013917
   3226       0.00000                       7.125632           7.132000             0.000004
   3227       0.00000                       7.128771           7.132926             0.000926
   3228       0.00000                       7.128774           7.132928             0.000003
   3229       0.00000                       7.137331           7.145766             0.012837
   3230       0.00000                       7.137336           7.145769             0.000004
   3231       0.00000                       7.146510           7.150825             0.005055
   3232       0.00000                       7.146519           7.150831             0.000006
   3233       0.00000                       7.170043           7.184010             0.033179
   3234       0.00000                       7.170049           7.184013             0.000003
   3235       0.00000                       7.182234           7.192990             0.008977
   3236       0.00000                       7.182238           7.192991             0.000001
   3237       0.00000                       7.191743           7.199336             0.006345
   3238       0.00000                       7.191747           7.199340             0.000004
   3239       0.00000                       7.199129           7.211651             0.012310
   3240       0.00000                       7.199133           7.211654             0.000003
   3241       0.00000                       7.241929           7.245416             0.033763
   3242       0.00000                       7.241933           7.245420             0.000004
   3243       0.00000                       7.251449           7.257286             0.011866
   3244       0.00000                       7.251453           7.257290             0.000004
   3245       0.00000                       7.260342           7.268711             0.011421
   3246       0.00000                       7.260343           7.268712             0.000001
   3247       0.00000                       7.305105           7.307123             0.038411
   3248       0.00000                       7.305108           7.307123             0.000000
   3249       0.00000                       7.314757           7.321232             0.014109
   3250       0.00000                       7.314764           7.321237             0.000005
   3251       0.00000                       7.316894           7.327724             0.006487
   3252       0.00000                       7.316900           7.327728             0.000004
   3253       0.00000                       7.354699           7.359486             0.031757
   3254       0.00000                       7.354706           7.359492             0.000007
   3255       0.00000                       7.376712           7.388763             0.029271
   3256       0.00000                       7.376719           7.388770             0.000006
   3257       0.00000                       7.446376           7.450529             0.061759
   3258       0.00000                       7.446384           7.450537             0.000008
   3259       0.00000                       7.450334           7.457631             0.007094
   3260       0.00000                       7.450342           7.457639             0.000008
   3261       0.00000                       7.480821           7.487751             0.030112
   3262       0.00000                       7.480824           7.487754             0.000003
   3263       0.00000                       7.499693           7.508115             0.020360
   3264       0.00000                       7.499698           7.508119             0.000004
   3265       0.00000                       7.536530           7.541011             0.032893
   3266       0.00000                       7.536539           7.541019             0.000008
   3267       0.00000                       7.600956           7.619227             0.078207
   3268       0.00000                       7.600965           7.619235             0.000008
   3269       0.00000                       7.645043           7.644880             0.025645
   3270       0.00000                       7.645052           7.644882             0.000002
   3271       0.00000                       7.650872           7.660582             0.015700
   3272       0.00000                       7.650880           7.660583             0.000001
   3273       0.00000                       7.662126           7.682763             0.022180
   3274       0.00000                       7.662135           7.682772             0.000009
   3275       0.00000                       7.701476           7.715970             0.033198
   3276       0.00000                       7.701485           7.715979             0.000009
   3277       0.00000                       7.770387           7.772629             0.056650
   3278       0.00000                       7.770394           7.772636             0.000007
   3279       0.00000                       7.804874           7.819206             0.046570
   3280       0.00000                       7.804882           7.819214             0.000008
   3281       0.00000                       7.867920           7.876836             0.057622
   3282       0.00000                       7.867926           7.876842             0.000006
   3283       0.00000                       7.901164           7.905535             0.028693
   3284       0.00000                       7.901169           7.905539             0.000005
   3285       0.00000                       7.907827           7.919027             0.013488
   3286       0.00000                       7.907831           7.919031             0.000004
   3287       0.00000                       7.924817           7.935660             0.016629
   3288       0.00000                       7.924822           7.935664             0.000003
   3289       0.00000                       7.934588           7.943510             0.007847
   3290       0.00000                       7.934596           7.943516             0.000006
   3291       0.00000                       8.004638           8.010851             0.067335
   3292       0.00000                       8.004641           8.010854             0.000003
   3293       0.00000                       8.028510           8.039635             0.028780
   3294       0.00000                       8.028514           8.039638             0.000003
   3295       0.00000                       8.044878           8.045619             0.005981
   3296       0.00000                       8.044884           8.045620             0.000001
   3297       0.00000                       8.056923           8.070012             0.024392
   3298       0.00000                       8.056931           8.070015             0.000002
   3299       0.00000                       8.061568           8.080209             0.010194
   3300       0.00000                       8.061573           8.080209             0.000000

  What follows are estimated values for band gap, HOMO, LUMO, etc.
  | They are estimated on a discrete k-point grid and not necessarily exact.
  | For converged numbers, create a DOS and/or band structure plot on a denser k-grid.

  Highest occupied state (VBM) at     -5.05999680 eV (relative to internal zero)
  | Occupation number:      1.00000000
  | K-point:       4 at    0.500000    0.500000    0.000000 (in units of recip. lattice)

  Lowest unoccupied state (CBM) at    -4.73080525 eV (relative to internal zero)
  | Occupation number:      0.00000000
  | K-point:       2 at    0.000000    0.500000    0.000000 (in units of recip. lattice)

  ESTIMATED overall HOMO-LUMO gap:      0.32919155 eV between HOMO at k-point 4 and LUMO at k-point 2
  | This appears to be an indirect band gap.
  | Smallest direct gap :      0.33082252 eV for k_point 4 at    0.500000    0.500000    0.000000 (in units of recip. lattice)
  The gap value is above 0.2 eV. Unless you are using a very sparse k-point grid,
  this system is most likely an insulator or a semiconductor.
  | Potential vacuum level, "upper" slab surface:    -0.04946852 eV
  | Potential vacuum level, "lower" slab surface:    -0.04945867 eV
  | Work function ("upper" slab surface)        :     4.77618985 eV
  | Work function ("lower" slab surface)        :     4.77619970 eV
  *** Warning: band gap may exist, check the suitability to define work function using chemical potential.
  | VBM (reference: upper vacuum level)         :     5.01052828 eV
  | CBM (reference: upper vacuum level)         :     4.68133673 eV

  Spin-orbit coupling                                     :  max(cpu_time)    wall_clock(cpu1)
  | Computing matrix elements for SOC operator            :          9.184               9.186
  | Constructing second-variational Hamiltonian           :          2.089               2.089
  | Diagonalizing second-variational Hamiltonian          :          1.233               1.233
  | Syncing data and calculating occupations              :          0.063               0.010
  | Writing out data, calculating band gaps, etc.         :          0.018               0.017
  | Total SOC time                                        :         12.537              12.538

  Partial memory accounting:
  | Current value for overall tracked memory usage:
  |   Minimum:       75.537 MB (on task  53)
  |   Maximum:       75.658 MB (on task   0)
  |   Average:       75.642 MB
  | Peak value for overall tracked memory usage:
  |   Minimum:      178.192 MB (on task  32 after allocating potential_shell)
  |   Maximum:      179.982 MB (on task 103 after allocating potential_shell)
  |   Average:      179.039 MB
  | Largest tracked array allocation so far:
  |   Minimum:       83.348 MB (soc_matrix on task   0)
  |   Maximum:       83.348 MB (soc_matrix on task   0)
  |   Average:       83.348 MB
  Note:  These values currently only include a subset of arrays which are explicitly tracked.
  The "true" memory usage will be greater.
 ------------------------------------------------------------
 Work function related results without post-SCF corrections:
 ------------------------------------------------------------
  | Chemical Potential                          :    -4.88491131 eV
  Writing energy levels:
  | Potential vacuum level, "upper" slab surface:    -0.04946852 eV
  | Potential vacuum level, "lower" slab surface:    -0.04945867 eV
  Spin-up energy levels:
  | Work function-spin ("upper" slab surface)   :     4.83544279 eV
  | Work function-spin ("lower" slab surface)   :     4.83545264 eV
  *** Warning: band gap may exist, check the suitability to define work function using chemical potential.
  | VBM-spin (reference: upper vacuum level)    :     5.02596220 eV
  | CBM-spin (reference: upper vacuum level)    :     4.68823283 eV
  Spin-down energy levels:
  | Work function-spin ("upper" slab surface)   :     4.83544279 eV
  | Work function-spin ("lower" slab surface)   :     4.83545264 eV
  *** Warning: band gap may exist, check the suitability to define work function using chemical potential.
  | VBM-spin (reference: upper vacuum level)    :     5.02594737 eV
  | CBM-spin (reference: upper vacuum level)    :     4.68816362 eV
 ------------------------------------------------------------
 Work function related results including post-SCF second variational SOC corrections:
 ------------------------------------------------------------
  | Chemical Potential                          :    -4.82565837 eV
  Writing energy levels:
  | Potential vacuum level, "upper" slab surface:    -0.04946852 eV
  | Potential vacuum level, "lower" slab surface:    -0.04945867 eV
  | Work function ("upper" slab surface)        :     4.77618985 eV
  | Work function ("lower" slab surface)        :     4.77619970 eV
  *** Warning: band gap may exist, check the suitability to define work function using chemical potential.
  | VBM (reference: upper vacuum level)         :     5.01052828 eV
  | CBM (reference: upper vacuum level)         :     4.68133673 eV
 ------------------------------------------------------------

------------------------------------------------------------------------------
  Final output of selected total energy values:

  The following output summarizes some interesting total energy values
  at the end of a run (AFTER all relaxation, molecular dynamics, etc.).

  | Total energy of the DFT / Hartree-Fock s.c.f. calculation      :       -5997076.049883360 eV
  | Final zero-broadening corrected energy (caution - metals only) :       -5997076.049883360 eV
  | Total energy after non-SC SOC correction (DO NOT USE)          :       -5997079.277761688 eV
  | For reference only, the value of 1 Hartree used in FHI-aims is :             27.211384500 eV
  | For reference only, the overall average (free atom contribution
  | + realspace contribution) of the electrostatic potential after
  | s.c.f. convergence is                                          :             -1.231458117 eV

  Before relying on these values, please be sure to understand exactly which
  total energy value is referred to by a given number. Different objects may
  all carry the same name 'total energy'. Definitions:

  Total energy of the DFT / Hartree-Fock s.c.f. calculation:
  | Note that this energy does not include ANY quantities calculated after the
  | s.c.f. cycle, in particular not ANY RPA, MP2, etc. many-body perturbation terms.

  Final zero-broadening corrected energy:
  | For metallic systems only, a broadening of the occupation numbers at the Fermi
  | level can be extrapolated back to zero broadening by an electron-gas inspired
  | formula. For all systems that are not real metals, this value can be
  | meaningless and should be avoided.

------------------------------------------------------------------------------
  Methods described in the following list of references were used in this FHI-aims run.
  If you publish the results, please make sure to cite these reference if they apply.
  FHI-aims is an academic code, and for our developers (often, Ph.D. students
  and postdocs), scientific credit in the community is essential.
  Thank you for helping us!

  For any use of FHI-aims, please cite:

    Volker Blum, Ralf Gehrke, Felix Hanke, Paula Havu, Ville Havu,
    Xinguo Ren, Karsten Reuter, and Matthias Scheffler
    'Ab initio molecular simulations with numeric atom-centered orbitals'
    Computer Physics Communications 180, 2175-2196 (2009)
    http://doi.org/10.1016/j.cpc.2009.06.022


  The provided symmetry information was generated with SPGlib:

    Atsushi Togo, Yusuke Seto, Dimitar Pashov
    SPGlib 1.7.3 obtained from http://spglib.sourceforge.net
    Copyright (C) 2008 Atsushi Togo


  For second-variational spin-orbit coupling used in your run, please cite:

    William P. Huhn and Volker Blum,
    'One-hundred-three compound band-structure benchmark of post-self-consistent'
    'spin-orbit coupling treatments in density functional theory'
    Phys. Rev. Materials 1, 033803 (2017).


  The ELSI infrastructure was used in your run to solve the Kohn-Sham electronic structure.
  Please check out http://elsi-interchange.org to learn more.
  If scalability is important for your project, please acknowledge ELSI by citing:

    V. W-z. Yu, F. Corsetti, A. Garcia, W. P. Huhn, M. Jacquelin, W. Jia,
    B. Lange, L. Lin, J. Lu, W. Mi, A. Seifitokaldani, A. Vazquez-Mayagoitia,
    C. Yang, H. Yang, and V. Blum
    'ELSI: A unified software interface for Kohn-Sham electronic structure solvers'
    Computer Physics Communications 222, 267-285 (2018).
    http://doi.org/10.1016/j.cpc.2017.09.007


  For the real-space grid partitioning and parallelization used in this calculation, please cite:

    Ville Havu, Volker Blum, Paula Havu, and Matthias Scheffler,
    'Efficient O(N) integration for all-electron electronic structure calculation'
    'using numerically tabulated basis functions'
    Journal of Computational Physics 228, 8367-8379 (2009).
    http://doi.org/10.1016/j.jcp.2009.08.008

  Of course, there are many other important community references, e.g., those cited in the
  above references. Our list is limited to references that describe implementations in the
  FHI-aims code. The reason is purely practical (length of this list) - please credit others as well.

   One or more s.c.f. cycles took more than 50 s.c.f. iterations.
   It might be worth adjusting your convergence settings. For example,
   metals need a larger broadening and a smaller "charge_mix_param" value than semiconductors.

------------------------------------------------------------
          Leaving FHI-aims.
          Date     :  20220913, Time     :  135538.881

          Computational steps:
          | Number of self-consistency cycles          :           70
          | Number of SCF (re)initializations          :            1

          Detailed time accounting                     :  max(cpu_time)    wall_clock(cpu1)
          | Total time                                  :      645.343 s         645.511 s
          | Preparation time                            :        1.332 s           1.332 s
          | Boundary condition initalization            :        0.817 s           0.817 s
          | Grid partitioning                           :        1.023 s           1.023 s
          | Preloading free-atom quantities on grid     :        1.813 s           1.816 s
          | Free-atom superposition energy              :        0.049 s           0.049 s
          | Total time for integrations                 :      140.927 s         140.922 s
          | Total time for solution of K.-S. equations  :       49.235 s          49.232 s
          | Total time for density update               :      281.442 s         281.497 s
          | Total time for mixing & preconditioning     :       42.149 s          42.139 s
          | Total time for Hartree multipole update     :        0.872 s           0.880 s
          | Total time for Hartree multipole sum        :      106.951 s         106.952 s
          | Total time for total energy evaluation      :        0.047 s           0.100 s
          | Total time for scaled ZORA corrections      :        0.000 s           0.000 s
          | Total time for vdW correction               :        5.039 s           5.042 s
          | Total time for matrix I/O                   :        9.933 s          10.671 s
          | Total time for perturbative SOC             :       12.537 s          12.538 s

          Partial memory accounting:
          | Residual value for overall tracked memory usage across tasks:     0.000000 MB (should be 0.000000 MB)
          | Peak values for overall tracked memory usage:
          |   Minimum:      178.192 MB (on task  32 after allocating potential_shell)
          |   Maximum:      179.982 MB (on task 103 after allocating potential_shell)
          |   Average:      179.039 MB
          | Largest tracked array allocation:
          |   Minimum:       83.348 MB (soc_matrix on task   0)
          |   Maximum:       83.348 MB (soc_matrix on task   0)
          |   Average:       83.348 MB
          Note:  These values currently only include a subset of arrays which are explicitly tracked.
          The "true" memory usage will be greater.

          Have a nice day.
------------------------------------------------------------
