------------------------------------------------------------
          Invoking FHI-aims ...

          When using FHI-aims, please cite the following reference:

            Volker Blum, Ralf Gehrke, Felix Hanke, Paula Havu,
            Ville Havu, Xinguo Ren, Karsten Reuter, and Matthias Scheffler,
            'Ab Initio Molecular Simulations with Numeric Atom-Centered Orbitals',
            Computer Physics Communications 180, 2175-2196 (2009)

          In addition, many other developments in FHI-aims are likely important for
          your particular application. A partial list of references is given at the end of
          this file. Thank you for giving credit to the authors of these developments.

          For any questions about FHI-aims, please visit our slack channel at

            https://fhi-aims.slack.com

          and our main development and support site at

            https://aims-git.rz-berlin.mpg.de .

          The latter site, in particular, has a wiki to collect information, as well
          as an issue tracker to log discussions, suggest improvements, and report issues
          or bugs. https://aims-git.rz-berlin.mpg.de is also the main development site
          of the project and all new and updated code versions can be obtained there.
          Please send an email to aims-coordinators@fhi-berlin.mpg.de and we will add
          you to these sites. They are for you and everyone is welcome there.

------------------------------------------------------------



  Date     :  20220913, Time     :  134454.092
  Time zero on CPU 1             :   0.329234900000000E+01  s.
  Internal wall clock time zero  :           432308694.092  s.

  FHI-aims created a unique identifier for this run for later identification
  aims_uuid : 1842C429-7E8F-490B-A0CA-F7A7F73CB8CC

  Build configuration of the current instance of FHI-aims
  -------------------------------------------------------
  FHI-aims version      : 220117
  Commit number         : 0c0e6afe2
  CMake host system     : Linux-5.3.18-24.99-default
  CMake version         : 3.22.0
  Fortran compiler      : /mpcdf/soft/SLE_15/packages/x86_64/intel_oneapi/2021.4/mpi/2021.4.0/bin/mpiifort (Intel) version 2021.4.0.20210910
  Fortran compiler flags: -O3 -ip -fp-model precise
  C compiler            : /mpcdf/soft/SLE_15/packages/x86_64/intel/2021.4.0/bin/icc (Intel) version 2021.4.0.20210910
  C compiler flags      : -O3 -ip -fp-model precise
  C++ compiler          : /mpcdf/soft/SLE_15/packages/x86_64/intel/2021.4.0/bin/icpc (Intel) version 2021.4.0.20210910
  C++ compiler flags    : -O3 -ip -fp-model precise
  Using MPI
  Using ScaLAPACK
  Using LibXC
  Using i-PI
  Using RLSY
  Linking against: /mpcdf/soft/SLE_15/packages/x86_64/intel_oneapi/2021.4/mkl/latest/lib/intel64/libmkl_intel_lp64.so
                   /mpcdf/soft/SLE_15/packages/x86_64/intel_oneapi/2021.4/mkl/latest/lib/intel64/libmkl_sequential.so
                   /mpcdf/soft/SLE_15/packages/x86_64/intel_oneapi/2021.4/mkl/latest/lib/intel64/libmkl_core.so
                   /mpcdf/soft/SLE_15/packages/x86_64/intel_oneapi/2021.4/mkl/latest/lib/intel64/libmkl_blacs_intelmpi_lp64.so
                   /mpcdf/soft/SLE_15/packages/x86_64/intel_oneapi/2021.4/mkl/latest/lib/intel64/libmkl_scalapack_lp64.so

  Using      216 parallel tasks.
  Task        0 on host ravg1004 reporting.
  Task        1 on host ravg1004 reporting.
  Task        2 on host ravg1004 reporting.
  Task        3 on host ravg1004 reporting.
  Task        4 on host ravg1004 reporting.
  Task        5 on host ravg1004 reporting.
  Task        6 on host ravg1004 reporting.
  Task        7 on host ravg1004 reporting.
  Task        8 on host ravg1004 reporting.
  Task        9 on host ravg1004 reporting.
  Task       10 on host ravg1004 reporting.
  Task       11 on host ravg1004 reporting.
  Task       12 on host ravg1004 reporting.
  Task       13 on host ravg1004 reporting.
  Task       14 on host ravg1004 reporting.
  Task       15 on host ravg1004 reporting.
  Task       16 on host ravg1004 reporting.
  Task       17 on host ravg1004 reporting.
  Task       18 on host ravg1004 reporting.
  Task       19 on host ravg1004 reporting.
  Task       20 on host ravg1004 reporting.
  Task       21 on host ravg1004 reporting.
  Task       22 on host ravg1004 reporting.
  Task       23 on host ravg1004 reporting.
  Task       24 on host ravg1004 reporting.
  Task       25 on host ravg1004 reporting.
  Task       26 on host ravg1004 reporting.
  Task       27 on host ravg1004 reporting.
  Task       28 on host ravg1004 reporting.
  Task       29 on host ravg1004 reporting.
  Task       30 on host ravg1004 reporting.
  Task       31 on host ravg1004 reporting.
  Task       32 on host ravg1004 reporting.
  Task       33 on host ravg1004 reporting.
  Task       34 on host ravg1004 reporting.
  Task       35 on host ravg1004 reporting.
  Task       36 on host ravg1004 reporting.
  Task       37 on host ravg1004 reporting.
  Task       38 on host ravg1004 reporting.
  Task       39 on host ravg1004 reporting.
  Task       40 on host ravg1004 reporting.
  Task       41 on host ravg1004 reporting.
  Task       42 on host ravg1004 reporting.
  Task       43 on host ravg1004 reporting.
  Task       44 on host ravg1004 reporting.
  Task       45 on host ravg1004 reporting.
  Task       46 on host ravg1004 reporting.
  Task       47 on host ravg1004 reporting.
  Task       48 on host ravg1004 reporting.
  Task       49 on host ravg1004 reporting.
  Task       50 on host ravg1004 reporting.
  Task       51 on host ravg1004 reporting.
  Task       52 on host ravg1004 reporting.
  Task       53 on host ravg1004 reporting.
  Task       54 on host ravg1004 reporting.
  Task       55 on host ravg1004 reporting.
  Task       56 on host ravg1004 reporting.
  Task       57 on host ravg1004 reporting.
  Task       58 on host ravg1004 reporting.
  Task       59 on host ravg1004 reporting.
  Task       60 on host ravg1004 reporting.
  Task       61 on host ravg1004 reporting.
  Task       62 on host ravg1004 reporting.
  Task       63 on host ravg1004 reporting.
  Task       64 on host ravg1004 reporting.
  Task       65 on host ravg1004 reporting.
  Task       66 on host ravg1004 reporting.
  Task       67 on host ravg1004 reporting.
  Task       68 on host ravg1004 reporting.
  Task       69 on host ravg1004 reporting.
  Task       70 on host ravg1004 reporting.
  Task       71 on host ravg1004 reporting.
  Task       72 on host ravg1014 reporting.
  Task       73 on host ravg1014 reporting.
  Task       74 on host ravg1014 reporting.
  Task       75 on host ravg1014 reporting.
  Task       76 on host ravg1014 reporting.
  Task       77 on host ravg1014 reporting.
  Task       78 on host ravg1014 reporting.
  Task       79 on host ravg1014 reporting.
  Task       80 on host ravg1014 reporting.
  Task       81 on host ravg1014 reporting.
  Task       82 on host ravg1014 reporting.
  Task       83 on host ravg1014 reporting.
  Task       84 on host ravg1014 reporting.
  Task       85 on host ravg1014 reporting.
  Task       86 on host ravg1014 reporting.
  Task       87 on host ravg1014 reporting.
  Task       88 on host ravg1014 reporting.
  Task       89 on host ravg1014 reporting.
  Task       90 on host ravg1014 reporting.
  Task       91 on host ravg1014 reporting.
  Task       92 on host ravg1014 reporting.
  Task       93 on host ravg1014 reporting.
  Task       94 on host ravg1014 reporting.
  Task       95 on host ravg1014 reporting.
  Task       96 on host ravg1014 reporting.
  Task       97 on host ravg1014 reporting.
  Task       98 on host ravg1014 reporting.
  Task       99 on host ravg1014 reporting.
  Task      100 on host ravg1014 reporting.
  Task      101 on host ravg1014 reporting.
  Task      102 on host ravg1014 reporting.
  Task      103 on host ravg1014 reporting.
  Task      104 on host ravg1014 reporting.
  Task      105 on host ravg1014 reporting.
  Task      106 on host ravg1014 reporting.
  Task      107 on host ravg1014 reporting.
  Task      108 on host ravg1014 reporting.
  Task      109 on host ravg1014 reporting.
  Task      110 on host ravg1014 reporting.
  Task      111 on host ravg1014 reporting.
  Task      112 on host ravg1014 reporting.
  Task      113 on host ravg1014 reporting.
  Task      114 on host ravg1014 reporting.
  Task      115 on host ravg1014 reporting.
  Task      116 on host ravg1014 reporting.
  Task      117 on host ravg1014 reporting.
  Task      118 on host ravg1014 reporting.
  Task      119 on host ravg1014 reporting.
  Task      120 on host ravg1014 reporting.
  Task      121 on host ravg1014 reporting.
  Task      122 on host ravg1014 reporting.
  Task      123 on host ravg1014 reporting.
  Task      124 on host ravg1014 reporting.
  Task      125 on host ravg1014 reporting.
  Task      126 on host ravg1014 reporting.
  Task      127 on host ravg1014 reporting.
  Task      128 on host ravg1014 reporting.
  Task      129 on host ravg1014 reporting.
  Task      130 on host ravg1014 reporting.
  Task      131 on host ravg1014 reporting.
  Task      132 on host ravg1014 reporting.
  Task      133 on host ravg1014 reporting.
  Task      134 on host ravg1014 reporting.
  Task      135 on host ravg1014 reporting.
  Task      136 on host ravg1014 reporting.
  Task      137 on host ravg1014 reporting.
  Task      138 on host ravg1014 reporting.
  Task      139 on host ravg1014 reporting.
  Task      140 on host ravg1014 reporting.
  Task      141 on host ravg1014 reporting.
  Task      142 on host ravg1014 reporting.
  Task      143 on host ravg1014 reporting.
  Task      144 on host ravg1015 reporting.
  Task      145 on host ravg1015 reporting.
  Task      146 on host ravg1015 reporting.
  Task      147 on host ravg1015 reporting.
  Task      148 on host ravg1015 reporting.
  Task      149 on host ravg1015 reporting.
  Task      150 on host ravg1015 reporting.
  Task      151 on host ravg1015 reporting.
  Task      152 on host ravg1015 reporting.
  Task      153 on host ravg1015 reporting.
  Task      154 on host ravg1015 reporting.
  Task      155 on host ravg1015 reporting.
  Task      156 on host ravg1015 reporting.
  Task      157 on host ravg1015 reporting.
  Task      158 on host ravg1015 reporting.
  Task      159 on host ravg1015 reporting.
  Task      160 on host ravg1015 reporting.
  Task      161 on host ravg1015 reporting.
  Task      162 on host ravg1015 reporting.
  Task      163 on host ravg1015 reporting.
  Task      164 on host ravg1015 reporting.
  Task      165 on host ravg1015 reporting.
  Task      166 on host ravg1015 reporting.
  Task      167 on host ravg1015 reporting.
  Task      168 on host ravg1015 reporting.
  Task      169 on host ravg1015 reporting.
  Task      170 on host ravg1015 reporting.
  Task      171 on host ravg1015 reporting.
  Task      172 on host ravg1015 reporting.
  Task      173 on host ravg1015 reporting.
  Task      174 on host ravg1015 reporting.
  Task      175 on host ravg1015 reporting.
  Task      176 on host ravg1015 reporting.
  Task      177 on host ravg1015 reporting.
  Task      178 on host ravg1015 reporting.
  Task      179 on host ravg1015 reporting.
  Task      180 on host ravg1015 reporting.
  Task      181 on host ravg1015 reporting.
  Task      182 on host ravg1015 reporting.
  Task      183 on host ravg1015 reporting.
  Task      184 on host ravg1015 reporting.
  Task      185 on host ravg1015 reporting.
  Task      186 on host ravg1015 reporting.
  Task      187 on host ravg1015 reporting.
  Task      188 on host ravg1015 reporting.
  Task      189 on host ravg1015 reporting.
  Task      190 on host ravg1015 reporting.
  Task      191 on host ravg1015 reporting.
  Task      192 on host ravg1015 reporting.
  Task      193 on host ravg1015 reporting.
  Task      194 on host ravg1015 reporting.
  Task      195 on host ravg1015 reporting.
  Task      196 on host ravg1015 reporting.
  Task      197 on host ravg1015 reporting.
  Task      198 on host ravg1015 reporting.
  Task      199 on host ravg1015 reporting.
  Task      200 on host ravg1015 reporting.
  Task      201 on host ravg1015 reporting.
  Task      202 on host ravg1015 reporting.
  Task      203 on host ravg1015 reporting.
  Task      204 on host ravg1015 reporting.
  Task      205 on host ravg1015 reporting.
  Task      206 on host ravg1015 reporting.
  Task      207 on host ravg1015 reporting.
  Task      208 on host ravg1015 reporting.
  Task      209 on host ravg1015 reporting.
  Task      210 on host ravg1015 reporting.
  Task      211 on host ravg1015 reporting.
  Task      212 on host ravg1015 reporting.
  Task      213 on host ravg1015 reporting.
  Task      214 on host ravg1015 reporting.
  Task      215 on host ravg1015 reporting.

  Performing system and environment tests:
  | Environment variable OMP_NUM_THREADS correctly set to 1.
  | Checking for ScaLAPACK...
  | Testing pdtran()...
  | All pdtran() tests passed.

  Obtaining array dimensions for all initial allocations:
  
  -----------------------------------------------------------------------
  Parsing control.in (first pass over file, find array dimensions only).
  The contents of control.in will be repeated verbatim below
  unless switched off by setting 'verbatim_writeout .false.' .
  in the first line of control.in .
  -----------------------------------------------------------------------
  
  ##### Physical settings  ################
  xc                 pbe
  spin               collinear
  default_initial_moment 1
  charge      0.0
  relativistic       atomic_zora scalar
  #elsi_restart read
  # SCF settings
  #vdw_correction_hirshfeld
  occupation_type gaussian       0.01
  # k-grid settings  (to be adjusted)
  k_grid  2 2 1
  elsi_restart read_and_write 10
  empty_states 8
  include_spin_orbit non_self_consistent
  use_dipole_correction
  #output cube stm -0.5
  #mixer   pulay
  #n_max_pulay        12 # high for metal
  #charge_mix_param   0.07 #low for metal
  
  #output cube stm -0.5
  many_body_dispersion_nl    beta=0.81
  ################################################################################
  #
  #  FHI-aims code project
  # Volker Blum, Fritz Haber Institute Berlin, 2009
  #
  #  Suggested "tight" defaults for S atom (to be pasted into control.in file)
  #
  #  Revised Jan 04, 2011, following tests (SiC) done by Lydia Nemec:
  #     d and g functions of tier 2 now enabled by default.
  #
  ################################################################################
    species        S
  #     global species definitions
      nucleus             16
      mass                32.065
  #
      l_hartree           6
  #
      cut_pot             4.0          2.0  1.0
      basis_dep_cutoff    1e-4
  #
      radial_base         44 7.0
      radial_multiplier   2
      angular_grids       specified
        division   0.4665  110
        division   0.5810  194
        division   0.7139  302
        division   0.8274  434
  #      division   0.9105  590
  #      division   1.0975  770
  #      division   1.2028  974
  #      outer_grid  974
        outer_grid  434
  ################################################################################
  #
  #  Definition of "minimal" basis
  #
  ################################################################################
  #     valence basis states
      valence      3  s   2.
      valence      3  p   4.
  #     ion occupancy
      ion_occ      3  s   1.
      ion_occ      3  p   3.
  ################################################################################
  #
  #  Suggested additional basis functions. For production calculations,
  #  uncomment them one after another (the most important basis functions are
  #  listed first).
  #
  #  Constructed for dimers: 1.6 A, 1.9 A, 2.5 A, 3.25 A, 4.0 A
  #
  ################################################################################
  #  "First tier" - improvements: -652.81 meV to -45.53 meV
       ionic 3 d auto
       hydro 2 p 1.8
       hydro 4 f 7
       ionic 3 s auto
  #  "Second tier" - improvements: -30.20 meV to -1.74 meV
       hydro 4 d 6.2
       hydro 5 g 10.8
  #     hydro 4 p 4.9
  #     hydro 5 f 10
  #     hydro 1 s 0.8
  #  "Third tier" - improvements: -1.04 meV to -0.20 meV
  #     hydro 3 d 3.9
  #     hydro 3 d 2.7
  #     hydro 5 g 12
  #     hydro 4 p 10.4
  #     hydro 5 f 12.4
  #     hydro 2 s 1.9
  #  "Fourth tier" - improvements: -0.35 meV to -0.06 meV
  #     hydro 4 d 10.4
  #     hydro 4 p 7.2
  #     hydro 4 d 10
  #     hydro 5 g 19.2
  #     hydro 4 s 12
  
  ################################################################################
  #
  # For methods that use the localized form of the "resolution of identity" for
  # the two-electron Coulomb operator (RI_method LVL), particularly Hartree-Fock and
  # hybrid density functional calculations, the highest accuracy can be obtained by
  # uncommenting the line beginning with "for_aux"  below, thus adding an extra g radial
  # function to the construction of the product basis set for the expansion.
  # See Ref. New J. Phys. 17, 093020 (2015) for more information, particularly Figs. 1 and 6.
  #
  ################################################################################
  #
  # for_aux hydro 5 g 6.0
  ################################################################################
  #
  #  FHI-aims code project
  # Volker Blum, Fritz Haber Institute Berlin, 2009
  #
  #  Suggested "tight" defaults for Mo atom (to be pasted into control.in file)
  #
  ################################################################################
    species        Mo
  #     global species definitions
      nucleus             42
      mass                95.94
  #
      l_hartree           6
  #
      cut_pot             4.0  2.0  1.0
      basis_dep_cutoff    1e-4
  #
      radial_base         59 7.0
      radial_multiplier   2
      angular_grids specified
        division   0.3117   50
        division   0.6750  110
        division   1.0351  194
        division   1.2073  302
        division   1.6402  434
  #      division   1.9185  590
  #      division   2.0237  770
  #      division   2.0980  974
  #      division   2.7972 1202
  #      outer_grid  974
        outer_grid  434
  ################################################################################
  #
  #  Definition of "minimal" basis
  #
  ################################################################################
  #     valence basis states
      valence      5  s   1.
      valence      4  p   6.
      valence      4  d   5.
  #     ion occupancy
      ion_occ     5  s   0.
      ion_occ     4  p   6.
      ion_occ     4  d   4.
  ################################################################################
  #
  #  Suggested additional basis functions. For production calculations,
  #  uncomment them one after another (the most important basis functions are
  #  listed first).
  #
  #  Constructed for dimers: 1.675 A, 1.9 A, 2.375 A, 3.00 A, 4.00 A
  #
  ################################################################################
  #  "First tier"  - max. impr. -711.23  meV, min. impr. -21.07 meV
       hydro 4 f 8.4
       hydro 3 d 2.8
       ionic 5 p auto
       hydro 5 g 12
       ionic 5 s auto
  #  "Second tier" - max. impr. -39.38  meV, min. impr. -2.68 meV
  #     hydro 4 f 12.4
  #     hydro 3 d 3.3
  #     hydro 6 h 17.2
  #     hydro 4 f 7.6
  #     hydro 3 p 3.0
  #     hydro 1 s 0.65
  #  "Third tier"  - max. impr. -5.50 meV, min. impr. -0.47 meV
  #     hydro 4 f 29.2
  #     hydro 5 g 11.2
  #     hydro 3 d 6.8
  #     hydro 6 h 14.8
  #     hydro 2 p 2.3
  #     hydro 4 s 3.8
  #  "Fourth tier"  - max. impr. -0.58 meV, min. impr. -0.19 meV
  #     hydro 5 f 6.8
  #     hydro 5 d 14.8
  #     hydro 6 s 7.8
  #     hydro 5 g 20.8
  #     hydro 5 d 10.4
  #     hydro 5 p 9.8
  #  Further functions - -0.17 meV and below
  #     hydro 5 d 3.2
  ################################################################################
  #
  #  FHI-aims code project
  # Volker Blum, Fritz Haber Institute Berlin, 2009
  #
  #  Suggested "tight" defaults for W atom (to be pasted into control.in file)
  #
  ################################################################################
    species          W
  #     global species definitions
      nucleus        74
      mass           183.84
  #
      l_hartree      6
  #
      cut_pot        4.0  2.0  1.0
      basis_dep_cutoff    1e-4
  #
      radial_base    71  7.0
      radial_multiplier  2
      angular_grids specified
        division   0.2901   50
        division   0.6986  110
        division   1.0528  194
        division   1.2659  302
        division   1.5223  434
  #      division   1.8111  590
  #      division   2.0105  770
  #      division   2.0413  974
  #      division   2.8804 1202
  #      outer_grid  974
        outer_grid  434
  ################################################################################
  #
  #  Definition of "minimal" basis
  #
  ################################################################################
  #     valence basis states
      valence      6  s   2.
      valence      5  p   6.
      valence      5  d   4.
      valence      4  f  14.
  #     ion occupancy
      ion_occ      6  s   1.
      ion_occ      5  p   6.
      ion_occ      5  d   3.
      ion_occ      4  f  14.
  ################################################################################
  #
  #  Suggested additional basis functions. For production calculations,
  #  uncomment them one after another (the most important basis functions are
  #  listed first).
  #
  #  Constructed for dimers: 1.775, 1.99, 2.50, 3.25, 4.50 AA
  #
  ################################################################################
  #
  #  "First tier" - improvements: -603.77 meV to -28.99 meV
       hydro 4 f 7.8
       hydro 4 d 5.8
       ionic 6 p auto
       hydro 5 g 12.4
       ionic 6 s auto
  #  "Second tier" - improvements: -28.30 meV to -1.31 meV
  #     hydro 6 h 16.8
  #     ionic 5 d auto
  #     hydro 4 f 8.6
  #     hydro 5 g 16.8
  #     hydro 5 d 8.4
  #     hydro 3 p 3.3
  #     hydro 1 s 0.55
  #  "Third tier" - max. impr. -1.79 meV, min. impr. -0.26 meV
  #     hydro 5 f 10.8
  #     hydro 5 g 34.4
  #     hydro 6 h 20.8
  #     hydro 5 g 12.8
  #     hydro 2 p 1.6
  #     hydro 4 s 4.7
  #     hydro 6 d 18.4
  #  "Fourth tier" -0.46 max. impr. - meV, min. impr. -0.09 meV
  #     hydro 6 h 21.6
  #     hydro 5 f 22.4
  #     hydro 4 f 4
  #     hydro 5 p 9.6
  #     hydro 6 d 17.2
  #     hydro 3 p 5.2
  #     hydro 5 g 4.7
  #     hydro 6 s 7.6
  ################################################################################
  #
  #  FHI-aims code project
  # Volker Blum, Fritz Haber Institute Berlin, 2009
  #
  #  Suggested "tight" defaults for Se atom (to be pasted into control.in file)
  #
  ################################################################################
    species        Se
  #     global species definitions
      nucleus             34
      mass                78.96
  #
      l_hartree           6
  #
      cut_pot             4.0          2.0  1.0
      basis_dep_cutoff    1e-4
  #
      radial_base         55 7.0
      radial_multiplier   2
      angular_grids       specified
        division   0.0830  110
        division   0.1357  194
        division   0.7377  302
        division   0.8610  434
  #      division   0.9640  590
  #      division   1.0773  770
  #      division   2.5539  974
  #      outer_grid  974
        outer_grid  434
  ################################################################################
  #
  #  Definition of "minimal" basis
  #
  ################################################################################
  #     valence basis states
      valence      4  s   2.
      valence      4  p   4.
      valence      3  d  10.
  #     ion occupancy
      ion_occ      4  s   1.
      ion_occ      4  p   3.
      ion_occ      3  d  10.
  ################################################################################
  #
  #  Suggested additional basis functions. For production calculations,
  #  uncomment them one after another (the most important basis functions are
  #  listed first).
  #
  #  Constructed for dimers: 1.85 A, 2.15 A, 2.50 A, 3.00 A, 4.00 A
  #
  ################################################################################
  #  "First tier" - improvements: -336.21 meV to -36.85 meV
       hydro 3 d 4.3
       hydro 2 p 1.6
       hydro 4 f 7.2
       ionic 4 s auto
  #  "Second tier" - improvements: -14.39 meV to -1.49 meV
  #     hydro 5 g 10.4
  #     hydro 4 p 4.5
  #     hydro 4 d 6.2
  #     hydro 4 f 11.2
  #     hydro 1 s 0.65
  #     hydro 6 h 15.2
  #  "Third tier" - improvements: -0.46 meV and below
  #     hydro 5 g 14.4
  #     ionic 4 d auto
  #     hydro 4 f 22.4
  #     hydro 5 f 7.4
  #     hydro 5 p 8
  #     hydro 5 s 9.4
  #  "Fourth tier" - improvements: -0.12 meV and below
  #     hydro 5 d 11.6
  #     hydro 6 h 18
  #     hydro 4 p 4
  #     hydro 5 f 16
  #     hydro 4 s 3.9
  
  
  
  -----------------------------------------------------------------------
  Completed first pass over input file control.in .
  -----------------------------------------------------------------------
  
  
  -----------------------------------------------------------------------
  Parsing geometry.in (first pass over file, find array dimensions only).
  The contents of geometry.in will be repeated verbatim below
  unless switched off by setting 'verbatim_writeout .false.' .
  in the first line of geometry.in .
  -----------------------------------------------------------------------
  
  #
  # This is the geometry file that corresponds to the current relaxation step.
  # If you do not want this file to be written, set the "write_restart_geometry" flag to .false.
  #  aims_uuid : 350CA2D8-BF1D-42A7-A11B-407422B2E712
  #
    set_vacuum_level        52.613254
  lattice_vector     16.41708800      0.00000000      0.00000000
  lattice_vector     -8.21125790     14.21583190      0.00000000
  lattice_vector      0.00000000      0.00000000     99.89650741
  atom       0.05190787      1.04950027      2.66500000 Mo
  atom       1.69235230      2.01348083      4.33676180 Se
  atom       1.69235230      2.01348083      0.99323820 Se
  atom      -1.56655692      3.91842040      2.66500000 Mo
  atom       0.10455300      4.95233416      4.33169557 Se
  atom       0.10455300      4.95233416      0.99830443 Se
  atom      -3.18165671      6.71460970      2.66500000 Mo
  atom      -1.45058132      7.64460320      4.33161158 Se
  atom      -1.45058132      7.64460320      0.99838842 Se
  atom      -4.85809644      9.55009621      2.66500000 Mo
  atom      -3.20281264     10.48850326      4.33671045 Se
  atom      -3.20281264     10.48850326      0.99328955 Se
  atom      -6.51828479     12.40219742      2.66500000 Mo
  atom      -4.86886749     13.35432367      4.33490699 Se
  atom      -4.86886749     13.35432367      0.99509301 Se
  atom       3.33296116      1.04945103      2.66500000 Mo
  atom       4.96812508      2.00675725      4.33827820 Se
  atom       4.96812508      2.00675725      0.99172180 Se
  atom       1.69178639      3.93358785      2.66500000 Mo
  atom       3.27906037      4.95228473      4.33157620 Se
  atom       3.27906037      4.95228473      0.99842380 Se
  atom       0.28034632      6.84896729      2.66500000 Mo
  atom      -1.53958720      9.52847422      2.66500000 Mo
  atom       0.13624137     10.39368611      4.33159241 Se
  atom       0.13624137     10.39368611      0.99840759 Se
  atom      -3.21810714     12.39120556      2.66500000 Mo
  atom      -1.57137028     13.32846917      4.33827505 Se
  atom      -1.57137028     13.32846917      0.99172495 Se
  atom       6.61418075      1.02758829      2.66500000 Mo
  atom       8.25629615      1.97552140      4.34068251 Se
  atom       8.25629615      1.97552140      0.98931749 Se
  atom       4.95040410      3.91835597      2.66500000 Mo
  atom       6.60119359      4.82947226      4.34237156 Se
  atom       6.60119359      4.82947226      0.98762844 Se
  atom       3.10231857      6.84905549      2.66500000 Mo
  atom       4.83311868      7.64468523      4.33159146 Se
  atom       4.83311868      7.64468523      0.99840854 Se
  atom       1.69095558      9.29268533      2.66500000 Mo
  atom       3.24530280     10.39357786      4.33170836 Se
  atom       3.24530280     10.39357786      0.99829164 Se
  atom       0.07578683     12.35783131      2.66500000 Mo
  atom       1.69022610     13.33175469      4.34241550 Se
  atom       1.69022610     13.33175469      0.98758450 Se
  atom       9.90105311      1.02119414      2.66500000 Mo
  atom      11.54559832      1.97552163      4.34069592 Se
  atom      11.54559832      1.97552163      0.98930408 Se
  atom       8.25151639      3.87691349      2.66500000 Mo
  atom       9.90039625      4.82376812      4.34068493 Se
  atom       9.90039625      4.82376812      0.98931507 Se
  atom       6.56443834      6.71462049      2.66500000 Mo
  atom       8.22865749      7.65538197      4.33827462 Se
  atom       8.22865749      7.65538197      0.99172538 Se
  atom       4.92128118      9.52860955      2.66500000 Mo
  atom       6.58434413     10.48855173      4.33672309 Se
  atom       6.58434413     10.48855173      0.99327691 Se
  atom       3.30478475     12.35776113      2.66500000 Mo
  atom       4.95176708     13.32843382      4.33825554 Se
  atom       4.95176708     13.32843382      0.99174446 Se
  atom      13.18783095      1.02758661      2.66500000 Mo
  atom      14.83369886      2.00681557      4.33826313 Se
  atom      14.83369886      2.00681557      0.99173687 Se
  atom      11.54950969      3.87691881      2.66500000 Mo
  atom      13.19959920      4.82946622      4.34238061 Se
  atom      13.19959920      4.82946622      0.98761939 Se
  atom       9.89994870      6.71983821      2.66500000 Mo
  atom      11.57101819      7.65534946      4.33827917 Se
  atom      11.57101819      7.65534946      0.99172083 Se
  atom       8.23975419      9.55011708      2.66500000 Mo
  atom       9.89928346     10.49772815      4.33488924 Se
  atom       9.89928346     10.49772815      0.99511076 Se
  atom       6.59867689     12.39119547      2.66500000 Mo
  atom       8.24922303     13.35434323      4.33487969 Se
  atom       8.24922303     13.35434323      0.99512031 Se
  #
  # What follows is the current estimated Hessian matrix constructed by the BFGS algorithm.
  # This is NOT the true Hessian matrix of the system.
  # If you do not want this information here, switch it off using the "hessian_to_restart_geometry" keyword.
  #
  
  -----------------------------------------------------------------------
  Completed first pass over input file geometry.in .
  -----------------------------------------------------------------------
  

  Basic array size parameters:
  | Number of species                 :        4
  | Number of atoms                   :       73
  | Number of lattice vectors         :        3
  | Max. basis fn. angular momentum   :        4
  | Max. atomic/ionic basis occupied n:        6
  | Max. number of basis fn. types    :        3
  | Max. radial fns per species/type  :       14
  | Max. logarithmic grid size        :     1483
  | Max. radial integration grid size :      143
  | Max. angular integration grid size:      434
  | Max. angular grid division number :        8
  | Radial grid for Hartree potential :     1483
  | Number of spin channels           :        2

------------------------------------------------------------
          Reading file control.in.
------------------------------------------------------------
  XC: Using PBE gradient-corrected functionals.
  Spin treatment: Spin density functional theory - collinear spins.
  Initial spin moment per atom:   1.0000
  Charge =   0.000000E+00: Neutral system requested explicitly.
  Scalar relativistic treatment of kinetic energy: on-site free-atom approximation to ZORA.
  Occupation type: Gaussian broadening, width =   0.100000E-01 eV.
  Found k-point grid:         2         2         1
  Number of empty states per atom:        8
  Calculating non-self-consistent second-variational spin-orbit coupling after scf-cycle
  You have request a SOC run with spin-polarization.
  symmetry_reduced_k_grid will be turned off.
  Using dipole correction.
  Using libMBD for calculating MBD and TS energies
 
  Reading configuration options for species S                   .
  | Found nuclear charge :  16.0000
  | Found atomic mass :    32.0650000000000      amu
  | Found l_max for Hartree potential  :   6
  | Found cutoff potl. onset [A], width [A], scale factor :    4.00000    2.00000    1.00000
  | Threshold for basis-dependent cutoff potential is   0.100000E-03
  | Found data for basic radial integration grid :    44 points, outermost radius =    7.000 A
  | Found multiplier for basic radial grid :   2
  | Found angular grid specification: user-specified.
  | Specified grid contains     5 separate shells.
  | Check grid settings after all constraints further below.
  | Found free-atom valence shell :  3 s   2.000
  | Found free-atom valence shell :  3 p   4.000
  | Found free-ion valence shell :  3 s   1.000
  | Found free-ion valence shell :  3 p   3.000
  | Found ionic basis function :  3 d , default cutoff radius.
  | Found hydrogenic basis function :  2 p   1.800
  | Found hydrogenic basis function :  4 f   7.000
  | Found ionic basis function :  3 s , default cutoff radius.
  | Found hydrogenic basis function :  4 d   6.200
  | Found hydrogenic basis function :  5 g  10.800
  Species S                   : Missing cutoff potential type.
  Defaulting to exp(1/x)/(1-x)^2 type cutoff potential.
  Species S : No 'logarithmic' tag. Using default grid for free atom:
  | Default logarithmic grid data [bohr] : 0.1000E-03 0.1000E+03 0.1012E+01
  | Will include ionic basis functions of  2.0-fold positive S                    ion.
  Species S : On-site basis accuracy parameter (for Gram-Schmidt orthonormalisation) not specified.
  Using default value basis_acc =  0.1000000E-03.
  Species S                   : Using default innermost maximum threshold i_radial=  2 for radial functions.
  Species S                   : Default cutoff onset for free atom density etc. : 0.40000000E+01 AA.
  Species S                   : Basic radial grid will be enhanced according to radial_multiplier =   2, to contain    89 grid points.
 
  Reading configuration options for species Mo                  .
  | Found nuclear charge :  42.0000
  | Found atomic mass :    95.9400000000000      amu
  | Found l_max for Hartree potential  :   6
  | Found cutoff potl. onset [A], width [A], scale factor :    4.00000    2.00000    1.00000
  | Threshold for basis-dependent cutoff potential is   0.100000E-03
  | Found data for basic radial integration grid :    59 points, outermost radius =    7.000 A
  | Found multiplier for basic radial grid :   2
  | Found angular grid specification: user-specified.
  | Specified grid contains     6 separate shells.
  | Check grid settings after all constraints further below.
  | Found free-atom valence shell :  5 s   1.000
  | Found free-atom valence shell :  4 p   6.000
  | Found free-atom valence shell :  4 d   5.000
  | Found free-ion valence shell :  5 s   0.000
  | Found free-ion valence shell :  4 p   6.000
  | Found free-ion valence shell :  4 d   4.000
  | Found hydrogenic basis function :  4 f   8.400
  | Found hydrogenic basis function :  3 d   2.800
  | Found ionic basis function :  5 p , default cutoff radius.
  | Found hydrogenic basis function :  5 g  12.000
  | Found ionic basis function :  5 s , default cutoff radius.
  Species Mo                  : Missing cutoff potential type.
  Defaulting to exp(1/x)/(1-x)^2 type cutoff potential.
  Species Mo: No 'logarithmic' tag. Using default grid for free atom:
  | Default logarithmic grid data [bohr] : 0.1000E-03 0.1000E+03 0.1012E+01
  | Will include ionic basis functions of  2.0-fold positive Mo                   ion.
  Species Mo: On-site basis accuracy parameter (for Gram-Schmidt orthonormalisation) not specified.
  Using default value basis_acc =  0.1000000E-03.
  Species Mo                  : Using default innermost maximum threshold i_radial=  2 for radial functions.
  Species Mo                  : Default cutoff onset for free atom density etc. : 0.40000000E+01 AA.
  Species Mo                  : Basic radial grid will be enhanced according to radial_multiplier =   2, to contain   119 grid points.
 
  Reading configuration options for species W                   .
  | Found nuclear charge :  74.0000
  | Found atomic mass :    183.840000000000      amu
  | Found l_max for Hartree potential  :   6
  | Found cutoff potl. onset [A], width [A], scale factor :    4.00000    2.00000    1.00000
  | Threshold for basis-dependent cutoff potential is   0.100000E-03
  | Found data for basic radial integration grid :    71 points, outermost radius =    7.000 A
  | Found multiplier for basic radial grid :   2
  | Found angular grid specification: user-specified.
  | Specified grid contains     6 separate shells.
  | Check grid settings after all constraints further below.
  | Found free-atom valence shell :  6 s   2.000
  | Found free-atom valence shell :  5 p   6.000
  | Found free-atom valence shell :  5 d   4.000
  | Found free-atom valence shell :  4 f  14.000
  | Found free-ion valence shell :  6 s   1.000
  | Found free-ion valence shell :  5 p   6.000
  | Found free-ion valence shell :  5 d   3.000
  | Found free-ion valence shell :  4 f  14.000
  | Found hydrogenic basis function :  4 f   7.800
  | Found hydrogenic basis function :  4 d   5.800
  | Found ionic basis function :  6 p , default cutoff radius.
  | Found hydrogenic basis function :  5 g  12.400
  | Found ionic basis function :  6 s , default cutoff radius.
  Species W                   : Missing cutoff potential type.
  Defaulting to exp(1/x)/(1-x)^2 type cutoff potential.
  Species W : No 'logarithmic' tag. Using default grid for free atom:
  | Default logarithmic grid data [bohr] : 0.1000E-03 0.1000E+03 0.1012E+01
  | Will include ionic basis functions of  2.0-fold positive W                    ion.
  Species W : On-site basis accuracy parameter (for Gram-Schmidt orthonormalisation) not specified.
  Using default value basis_acc =  0.1000000E-03.
  Species W                   : Using default innermost maximum threshold i_radial=  2 for radial functions.
  Species W                   : Default cutoff onset for free atom density etc. : 0.40000000E+01 AA.
  Species W                   : Basic radial grid will be enhanced according to radial_multiplier =   2, to contain   143 grid points.
 
  Reading configuration options for species Se                  .
  | Found nuclear charge :  34.0000
  | Found atomic mass :    78.9600000000000      amu
  | Found l_max for Hartree potential  :   6
  | Found cutoff potl. onset [A], width [A], scale factor :    4.00000    2.00000    1.00000
  | Threshold for basis-dependent cutoff potential is   0.100000E-03
  | Found data for basic radial integration grid :    55 points, outermost radius =    7.000 A
  | Found multiplier for basic radial grid :   2
  | Found angular grid specification: user-specified.
  | Specified grid contains     5 separate shells.
  | Check grid settings after all constraints further below.
  | Found free-atom valence shell :  4 s   2.000
  | Found free-atom valence shell :  4 p   4.000
  | Found free-atom valence shell :  3 d  10.000
  | Found free-ion valence shell :  4 s   1.000
  | Found free-ion valence shell :  4 p   3.000
  | Found free-ion valence shell :  3 d  10.000
  | Found hydrogenic basis function :  3 d   4.300
  | Found hydrogenic basis function :  2 p   1.600
  | Found hydrogenic basis function :  4 f   7.200
  | Found ionic basis function :  4 s , default cutoff radius.
  Species Se                  : Missing cutoff potential type.
  Defaulting to exp(1/x)/(1-x)^2 type cutoff potential.
  Species Se: No 'logarithmic' tag. Using default grid for free atom:
  | Default logarithmic grid data [bohr] : 0.1000E-03 0.1000E+03 0.1012E+01
  | Will include ionic basis functions of  2.0-fold positive Se                   ion.
  Species Se: On-site basis accuracy parameter (for Gram-Schmidt orthonormalisation) not specified.
  Using default value basis_acc =  0.1000000E-03.
  Species Se                  : Using default innermost maximum threshold i_radial=  2 for radial functions.
  Species Se                  : Default cutoff onset for free atom density etc. : 0.40000000E+01 AA.
  Species Se                  : Basic radial grid will be enhanced according to radial_multiplier =   2, to contain   111 grid points.
 
  Finished reading input file 'control.in'.
 
------------------------------------------------------------


------------------------------------------------------------
          Reading geometry description geometry.in.
------------------------------------------------------------
  Vacuum level in z-axis :   0.526133E+02
  | The smallest distance between any two atoms is         2.51683741 AA.
  | The first atom of this pair is atom number                     36 .
  | The second atom of this pair is atom number                    53 .
  | Wigner-Seitz cell of the first atom image           0     0     0 .
  | (The Wigner-Seitz cell of the second atom is 0 0 0  by definition.)

  Symmetry information by spglib:
  | Precision set to  0.1E-04
  | Number of Operations  : 2
  | Space group           : 6
  | International         : Pm
  | Schoenflies           : Cs^1
  Input structure read successfully.
  The structure contains       73 atoms,  and a total of       2682.000 electrons.

  Input geometry:
  | Unit cell:
  |       16.41708800        0.00000000        0.00000000
  |       -8.21125790       14.21583190        0.00000000
  |        0.00000000        0.00000000       99.89650741
  | Atomic structure:
  |       Atom                x [A]            y [A]            z [A]
  |    1: Species Mo            0.05190787        1.04950027        2.66500000
  |    2: Species Se            1.69235230        2.01348083        4.33676180
  |    3: Species Se            1.69235230        2.01348083        0.99323820
  |    4: Species Mo           -1.56655692        3.91842040        2.66500000
  |    5: Species Se            0.10455300        4.95233416        4.33169557
  |    6: Species Se            0.10455300        4.95233416        0.99830443
  |    7: Species Mo           -3.18165671        6.71460970        2.66500000
  |    8: Species Se           -1.45058132        7.64460320        4.33161158
  |    9: Species Se           -1.45058132        7.64460320        0.99838842
  |   10: Species Mo           -4.85809644        9.55009621        2.66500000
  |   11: Species Se           -3.20281264       10.48850326        4.33671045
  |   12: Species Se           -3.20281264       10.48850326        0.99328955
  |   13: Species Mo           -6.51828479       12.40219742        2.66500000
  |   14: Species Se           -4.86886749       13.35432367        4.33490699
  |   15: Species Se           -4.86886749       13.35432367        0.99509301
  |   16: Species Mo            3.33296116        1.04945103        2.66500000
  |   17: Species Se            4.96812508        2.00675725        4.33827820
  |   18: Species Se            4.96812508        2.00675725        0.99172180
  |   19: Species Mo            1.69178639        3.93358785        2.66500000
  |   20: Species Se            3.27906037        4.95228473        4.33157620
  |   21: Species Se            3.27906037        4.95228473        0.99842380
  |   22: Species Mo            0.28034632        6.84896729        2.66500000
  |   23: Species Mo           -1.53958720        9.52847422        2.66500000
  |   24: Species Se            0.13624137       10.39368611        4.33159241
  |   25: Species Se            0.13624137       10.39368611        0.99840759
  |   26: Species Mo           -3.21810714       12.39120556        2.66500000
  |   27: Species Se           -1.57137028       13.32846917        4.33827505
  |   28: Species Se           -1.57137028       13.32846917        0.99172495
  |   29: Species Mo            6.61418075        1.02758829        2.66500000
  |   30: Species Se            8.25629615        1.97552140        4.34068251
  |   31: Species Se            8.25629615        1.97552140        0.98931749
  |   32: Species Mo            4.95040410        3.91835597        2.66500000
  |   33: Species Se            6.60119359        4.82947226        4.34237156
  |   34: Species Se            6.60119359        4.82947226        0.98762844
  |   35: Species Mo            3.10231857        6.84905549        2.66500000
  |   36: Species Se            4.83311868        7.64468523        4.33159146
  |   37: Species Se            4.83311868        7.64468523        0.99840854
  |   38: Species Mo            1.69095558        9.29268533        2.66500000
  |   39: Species Se            3.24530280       10.39357786        4.33170836
  |   40: Species Se            3.24530280       10.39357786        0.99829164
  |   41: Species Mo            0.07578683       12.35783131        2.66500000
  |   42: Species Se            1.69022610       13.33175469        4.34241550
  |   43: Species Se            1.69022610       13.33175469        0.98758450
  |   44: Species Mo            9.90105311        1.02119414        2.66500000
  |   45: Species Se           11.54559832        1.97552163        4.34069592
  |   46: Species Se           11.54559832        1.97552163        0.98930408
  |   47: Species Mo            8.25151639        3.87691349        2.66500000
  |   48: Species Se            9.90039625        4.82376812        4.34068493
  |   49: Species Se            9.90039625        4.82376812        0.98931507
  |   50: Species Mo            6.56443834        6.71462049        2.66500000
  |   51: Species Se            8.22865749        7.65538197        4.33827462
  |   52: Species Se            8.22865749        7.65538197        0.99172538
  |   53: Species Mo            4.92128118        9.52860955        2.66500000
  |   54: Species Se            6.58434413       10.48855173        4.33672309
  |   55: Species Se            6.58434413       10.48855173        0.99327691
  |   56: Species Mo            3.30478475       12.35776113        2.66500000
  |   57: Species Se            4.95176708       13.32843382        4.33825554
  |   58: Species Se            4.95176708       13.32843382        0.99174446
  |   59: Species Mo           13.18783095        1.02758661        2.66500000
  |   60: Species Se           14.83369886        2.00681557        4.33826313
  |   61: Species Se           14.83369886        2.00681557        0.99173687
  |   62: Species Mo           11.54950969        3.87691881        2.66500000
  |   63: Species Se           13.19959920        4.82946622        4.34238061
  |   64: Species Se           13.19959920        4.82946622        0.98761939
  |   65: Species Mo            9.89994870        6.71983821        2.66500000
  |   66: Species Se           11.57101819        7.65534946        4.33827917
  |   67: Species Se           11.57101819        7.65534946        0.99172083
  |   68: Species Mo            8.23975419        9.55011708        2.66500000
  |   69: Species Se            9.89928346       10.49772815        4.33488924
  |   70: Species Se            9.89928346       10.49772815        0.99511076
  |   71: Species Mo            6.59867689       12.39119547        2.66500000
  |   72: Species Se            8.24922303       13.35434323        4.33487969
  |   73: Species Se            8.24922303       13.35434323        0.99512031

  Lattice parameters for 3D lattice (in Angstroms) :    16.417088   16.416901   99.896507
  Angle(s) between unit vectors (in degrees)       :    90.000000   90.000000  120.011315


  Quantities derived from the lattice vectors:
  | Reciprocal lattice vector 1:  0.382722  0.221066  0.000000
  | Reciprocal lattice vector 2:  0.000000  0.441985  0.000000
  | Reciprocal lattice vector 3:  0.000000  0.000000  0.062897
  | Unit cell volume                               :   0.233141E+05  A^3

  Fractional coordinates:
                         L1                L2                L3
       atom_frac         0.04008710        0.07382616        0.02667761  Mo
       atom_frac         0.17392647        0.14163651        0.04341255  Se
       atom_frac         0.17392647        0.14163651        0.00994267  Se
       atom_frac         0.04244212        0.27563778        0.02667761  Mo
       atom_frac         0.18060990        0.34836752        0.04336183  Se
       atom_frac         0.18060990        0.34836752        0.00999339  Se
       atom_frac         0.04244317        0.47233322        0.02667761  Mo
       atom_frac         0.18060727        0.53775279        0.04336099  Se
       atom_frac         0.18060727        0.53775279        0.00999423  Se
       atom_frac         0.04009049        0.67179299        0.02667761  Mo
       atom_frac         0.17393398        0.73780440        0.04341203  Se
       atom_frac         0.17393398        0.73780440        0.00994319  Se
       atom_frac         0.03931228        0.87242150        0.02667761  Mo
       atom_frac         0.17328113        0.93939797        0.04339398  Se
       atom_frac         0.17328113        0.93939797        0.00996124  Se
       atom_frac         0.23994136        0.07382270        0.02667761  Mo
       atom_frac         0.37322425        0.14116355        0.04342773  Se
       atom_frac         0.37322425        0.14116355        0.00992749  Se
       atom_frac         0.24144844        0.27670472        0.02667761  Mo
       atom_frac         0.37397420        0.34836405        0.04336064  Se
       atom_frac         0.37397420        0.34836405        0.00999458  Se
       atom_frac         0.25804838        0.48178449        0.02667761  Mo
       atom_frac         0.24146725        0.67027201        0.02667761  Mo
       atom_frac         0.37398690        0.73113457        0.04336080  Se
       atom_frac         0.37398690        0.73113457        0.00999442  Se
       atom_frac         0.23994644        0.87164829        0.02667761  Mo
       atom_frac         0.37322909        0.93757926        0.04342769  Se
       atom_frac         0.37322909        0.93757926        0.00992752  Se
       atom_frac         0.43903826        0.07228478        0.02667761  Mo
       atom_frac         0.57241480        0.13896629        0.04345179  Se
       atom_frac         0.57241480        0.13896629        0.00990342  Se
       atom_frac         0.43940191        0.27563325        0.02667761  Mo
       atom_frac         0.57201146        0.33972491        0.04346870  Se
       atom_frac         0.57201146        0.33972491        0.00988652  Se
       atom_frac         0.42994386        0.48179069        0.02667761  Mo
       atom_frac         0.56336379        0.53775856        0.04336079  Se
       atom_frac         0.56336379        0.53775856        0.00999443  Se
       atom_frac         0.42995061        0.65368565        0.02667761  Mo
       atom_frac         0.56336268        0.73112695        0.04336196  Se
       atom_frac         0.56336268        0.73112695        0.00999326  Se
       atom_frac         0.43941035        0.86930061        0.02667761  Mo
       atom_frac         0.57201551        0.93781038        0.04346914  Se
       atom_frac         0.57201551        0.93781038        0.00988608  Se
       atom_frac         0.63902373        0.07183499        0.02667761  Mo
       atom_frac         0.77277325        0.13896630        0.04345193  Se
       atom_frac         0.77277325        0.13896630        0.00990329  Se
       atom_frac         0.63902163        0.27271802        0.02667761  Mo
       atom_frac         0.77277227        0.33932366        0.04345182  Se
       atom_frac         0.77277227        0.33932366        0.00990340  Se
       atom_frac         0.63609907        0.47233398        0.02667761  Mo
       atom_frac         0.77056968        0.53851101        0.04342769  Se
       atom_frac         0.77056968        0.53851101        0.00992753  Se
       atom_frac         0.63501735        0.67028153        0.02667761  Mo
       atom_frac         0.77009238        0.73780780        0.04341216  Se
       atom_frac         0.77009238        0.73780780        0.00994306  Se
       atom_frac         0.63609306        0.86929567        0.02667761  Mo
       atom_frac         0.77056612        0.93757677        0.04342750  Se
       atom_frac         0.77056612        0.93757677        0.00992772  Se
       atom_frac         0.83945332        0.07228466        0.02667761  Mo
       atom_frac         0.97415954        0.14116765        0.04342758  Se
       atom_frac         0.97415954        0.14116765        0.00992764  Se
       atom_frac         0.83990966        0.27271839        0.02667761  Mo
       atom_frac         0.97393427        0.33972449        0.04346879  Se
       atom_frac         0.97393427        0.33972449        0.00988643  Se
       atom_frac         0.83945573        0.47270102        0.02667761  Mo
       atom_frac         0.97415889        0.53850872        0.04342774  Se
       atom_frac         0.97415889        0.53850872        0.00992748  Se
       atom_frac         0.83790936        0.67179446        0.02667761  Mo
       atom_frac         0.97233529        0.73845331        0.04339380  Se
       atom_frac         0.97233529        0.73845331        0.00996142  Se
       atom_frac         0.83790743        0.87164758        0.02667761  Mo
       atom_frac         0.97233281        0.93939935        0.04339371  Se
       atom_frac         0.97233281        0.93939935        0.00996151  Se

  Initial moments and charges:
  |  Atom   Moment         Charge        Species
  |     1   0.100000E+01   0.000000E+00   Mo
  |     2   0.100000E+01   0.000000E+00   Se
  |     3   0.100000E+01   0.000000E+00   Se
  |     4   0.100000E+01   0.000000E+00   Mo
  |     5   0.100000E+01   0.000000E+00   Se
  |     6   0.100000E+01   0.000000E+00   Se
  |     7   0.100000E+01   0.000000E+00   Mo
  |     8   0.100000E+01   0.000000E+00   Se
  |     9   0.100000E+01   0.000000E+00   Se
  |    10   0.100000E+01   0.000000E+00   Mo
  |    11   0.100000E+01   0.000000E+00   Se
  |    12   0.100000E+01   0.000000E+00   Se
  |    13   0.100000E+01   0.000000E+00   Mo
  |    14   0.100000E+01   0.000000E+00   Se
  |    15   0.100000E+01   0.000000E+00   Se
  |    16   0.100000E+01   0.000000E+00   Mo
  |    17   0.100000E+01   0.000000E+00   Se
  |    18   0.100000E+01   0.000000E+00   Se
  |    19   0.100000E+01   0.000000E+00   Mo
  |    20   0.100000E+01   0.000000E+00   Se
  |    21   0.100000E+01   0.000000E+00   Se
  |    22   0.100000E+01   0.000000E+00   Mo
  |    23   0.100000E+01   0.000000E+00   Mo
  |    24   0.100000E+01   0.000000E+00   Se
  |    25   0.100000E+01   0.000000E+00   Se
  |    26   0.100000E+01   0.000000E+00   Mo
  |    27   0.100000E+01   0.000000E+00   Se
  |    28   0.100000E+01   0.000000E+00   Se
  |    29   0.100000E+01   0.000000E+00   Mo
  |    30   0.100000E+01   0.000000E+00   Se
  |    31   0.100000E+01   0.000000E+00   Se
  |    32   0.100000E+01   0.000000E+00   Mo
  |    33   0.100000E+01   0.000000E+00   Se
  |    34   0.100000E+01   0.000000E+00   Se
  |    35   0.100000E+01   0.000000E+00   Mo
  |    36   0.100000E+01   0.000000E+00   Se
  |    37   0.100000E+01   0.000000E+00   Se
  |    38   0.100000E+01   0.000000E+00   Mo
  |    39   0.100000E+01   0.000000E+00   Se
  |    40   0.100000E+01   0.000000E+00   Se
  |    41   0.100000E+01   0.000000E+00   Mo
  |    42   0.100000E+01   0.000000E+00   Se
  |    43   0.100000E+01   0.000000E+00   Se
  |    44   0.100000E+01   0.000000E+00   Mo
  |    45   0.100000E+01   0.000000E+00   Se
  |    46   0.100000E+01   0.000000E+00   Se
  |    47   0.100000E+01   0.000000E+00   Mo
  |    48   0.100000E+01   0.000000E+00   Se
  |    49   0.100000E+01   0.000000E+00   Se
  |    50   0.100000E+01   0.000000E+00   Mo
  |    51   0.100000E+01   0.000000E+00   Se
  |    52   0.100000E+01   0.000000E+00   Se
  |    53   0.100000E+01   0.000000E+00   Mo
  |    54   0.100000E+01   0.000000E+00   Se
  |    55   0.100000E+01   0.000000E+00   Se
  |    56   0.100000E+01   0.000000E+00   Mo
  |    57   0.100000E+01   0.000000E+00   Se
  |    58   0.100000E+01   0.000000E+00   Se
  |    59   0.100000E+01   0.000000E+00   Mo
  |    60   0.100000E+01   0.000000E+00   Se
  |    61   0.100000E+01   0.000000E+00   Se
  |    62   0.100000E+01   0.000000E+00   Mo
  |    63   0.100000E+01   0.000000E+00   Se
  |    64   0.100000E+01   0.000000E+00   Se
  |    65   0.100000E+01   0.000000E+00   Mo
  |    66   0.100000E+01   0.000000E+00   Se
  |    67   0.100000E+01   0.000000E+00   Se
  |    68   0.100000E+01   0.000000E+00   Mo
  |    69   0.100000E+01   0.000000E+00   Se
  |    70   0.100000E+01   0.000000E+00   Se
  |    71   0.100000E+01   0.000000E+00   Mo
  |    72   0.100000E+01   0.000000E+00   Se
  |    73   0.100000E+01   0.000000E+00   Se

 
  Finished reading input file 'control.in'.
 

------------------------------------------------------------
          Reading geometry description geometry.in.
------------------------------------------------------------
 
  Consistency checks for stacksize environment parameter are next.
 
  | Maximum stacksize for task 0: unlimited
  | Maximum stacksize for task 1: unlimited
  | Maximum stacksize for task 2: unlimited
  | Maximum stacksize for task 3: unlimited
  | Maximum stacksize for task 4: unlimited
  | Maximum stacksize for task 5: unlimited
  | Maximum stacksize for task 6: unlimited
  | Maximum stacksize for task 7: unlimited
  | Maximum stacksize for task 8: unlimited
  | Maximum stacksize for task 9: unlimited
  | Maximum stacksize for task 10: unlimited
  | Maximum stacksize for task 11: unlimited
  | Maximum stacksize for task 12: unlimited
  | Maximum stacksize for task 13: unlimited
  | Maximum stacksize for task 14: unlimited
  | Maximum stacksize for task 15: unlimited
  | Maximum stacksize for task 16: unlimited
  | Maximum stacksize for task 17: unlimited
  | Maximum stacksize for task 18: unlimited
  | Maximum stacksize for task 19: unlimited
  | Maximum stacksize for task 20: unlimited
  | Maximum stacksize for task 21: unlimited
  | Maximum stacksize for task 22: unlimited
  | Maximum stacksize for task 23: unlimited
  | Maximum stacksize for task 24: unlimited
  | Maximum stacksize for task 25: unlimited
  | Maximum stacksize for task 26: unlimited
  | Maximum stacksize for task 27: unlimited
  | Maximum stacksize for task 28: unlimited
  | Maximum stacksize for task 29: unlimited
  | Maximum stacksize for task 30: unlimited
  | Maximum stacksize for task 31: unlimited
  | Maximum stacksize for task 32: unlimited
  | Maximum stacksize for task 33: unlimited
  | Maximum stacksize for task 34: unlimited
  | Maximum stacksize for task 35: unlimited
  | Maximum stacksize for task 36: unlimited
  | Maximum stacksize for task 37: unlimited
  | Maximum stacksize for task 38: unlimited
  | Maximum stacksize for task 39: unlimited
  | Maximum stacksize for task 40: unlimited
  | Maximum stacksize for task 41: unlimited
  | Maximum stacksize for task 42: unlimited
  | Maximum stacksize for task 43: unlimited
  | Maximum stacksize for task 44: unlimited
  | Maximum stacksize for task 45: unlimited
  | Maximum stacksize for task 46: unlimited
  | Maximum stacksize for task 47: unlimited
  | Maximum stacksize for task 48: unlimited
  | Maximum stacksize for task 49: unlimited
  | Maximum stacksize for task 50: unlimited
  | Maximum stacksize for task 51: unlimited
  | Maximum stacksize for task 52: unlimited
  | Maximum stacksize for task 53: unlimited
  | Maximum stacksize for task 54: unlimited
  | Maximum stacksize for task 55: unlimited
  | Maximum stacksize for task 56: unlimited
  | Maximum stacksize for task 57: unlimited
  | Maximum stacksize for task 58: unlimited
  | Maximum stacksize for task 59: unlimited
  | Maximum stacksize for task 60: unlimited
  | Maximum stacksize for task 61: unlimited
  | Maximum stacksize for task 62: unlimited
  | Maximum stacksize for task 63: unlimited
  | Maximum stacksize for task 64: unlimited
  | Maximum stacksize for task 65: unlimited
  | Maximum stacksize for task 66: unlimited
  | Maximum stacksize for task 67: unlimited
  | Maximum stacksize for task 68: unlimited
  | Maximum stacksize for task 69: unlimited
  | Maximum stacksize for task 70: unlimited
  | Maximum stacksize for task 71: unlimited
  | Maximum stacksize for task 72: unlimited
  | Maximum stacksize for task 73: unlimited
  | Maximum stacksize for task 74: unlimited
  | Maximum stacksize for task 75: unlimited
  | Maximum stacksize for task 76: unlimited
  | Maximum stacksize for task 77: unlimited
  | Maximum stacksize for task 78: unlimited
  | Maximum stacksize for task 79: unlimited
  | Maximum stacksize for task 80: unlimited
  | Maximum stacksize for task 81: unlimited
  | Maximum stacksize for task 82: unlimited
  | Maximum stacksize for task 83: unlimited
  | Maximum stacksize for task 84: unlimited
  | Maximum stacksize for task 85: unlimited
  | Maximum stacksize for task 86: unlimited
  | Maximum stacksize for task 87: unlimited
  | Maximum stacksize for task 88: unlimited
  | Maximum stacksize for task 89: unlimited
  | Maximum stacksize for task 90: unlimited
  | Maximum stacksize for task 91: unlimited
  | Maximum stacksize for task 92: unlimited
  | Maximum stacksize for task 93: unlimited
  | Maximum stacksize for task 94: unlimited
  | Maximum stacksize for task 95: unlimited
  | Maximum stacksize for task 96: unlimited
  | Maximum stacksize for task 97: unlimited
  | Maximum stacksize for task 98: unlimited
  | Maximum stacksize for task 99: unlimited
  | Maximum stacksize for task 100: unlimited
  | Maximum stacksize for task 101: unlimited
  | Maximum stacksize for task 102: unlimited
  | Maximum stacksize for task 103: unlimited
  | Maximum stacksize for task 104: unlimited
  | Maximum stacksize for task 105: unlimited
  | Maximum stacksize for task 106: unlimited
  | Maximum stacksize for task 107: unlimited
  | Maximum stacksize for task 108: unlimited
  | Maximum stacksize for task 109: unlimited
  | Maximum stacksize for task 110: unlimited
  | Maximum stacksize for task 111: unlimited
  | Maximum stacksize for task 112: unlimited
  | Maximum stacksize for task 113: unlimited
  | Maximum stacksize for task 114: unlimited
  | Maximum stacksize for task 115: unlimited
  | Maximum stacksize for task 116: unlimited
  | Maximum stacksize for task 117: unlimited
  | Maximum stacksize for task 118: unlimited
  | Maximum stacksize for task 119: unlimited
  | Maximum stacksize for task 120: unlimited
  | Maximum stacksize for task 121: unlimited
  | Maximum stacksize for task 122: unlimited
  | Maximum stacksize for task 123: unlimited
  | Maximum stacksize for task 124: unlimited
  | Maximum stacksize for task 125: unlimited
  | Maximum stacksize for task 126: unlimited
  | Maximum stacksize for task 127: unlimited
  | Maximum stacksize for task 128: unlimited
  | Maximum stacksize for task 129: unlimited
  | Maximum stacksize for task 130: unlimited
  | Maximum stacksize for task 131: unlimited
  | Maximum stacksize for task 132: unlimited
  | Maximum stacksize for task 133: unlimited
  | Maximum stacksize for task 134: unlimited
  | Maximum stacksize for task 135: unlimited
  | Maximum stacksize for task 136: unlimited
  | Maximum stacksize for task 137: unlimited
  | Maximum stacksize for task 138: unlimited
  | Maximum stacksize for task 139: unlimited
  | Maximum stacksize for task 140: unlimited
  | Maximum stacksize for task 141: unlimited
  | Maximum stacksize for task 142: unlimited
  | Maximum stacksize for task 143: unlimited
  | Maximum stacksize for task 144: unlimited
  | Maximum stacksize for task 145: unlimited
  | Maximum stacksize for task 146: unlimited
  | Maximum stacksize for task 147: unlimited
  | Maximum stacksize for task 148: unlimited
  | Maximum stacksize for task 149: unlimited
  | Maximum stacksize for task 150: unlimited
  | Maximum stacksize for task 151: unlimited
  | Maximum stacksize for task 152: unlimited
  | Maximum stacksize for task 153: unlimited
  | Maximum stacksize for task 154: unlimited
  | Maximum stacksize for task 155: unlimited
  | Maximum stacksize for task 156: unlimited
  | Maximum stacksize for task 157: unlimited
  | Maximum stacksize for task 158: unlimited
  | Maximum stacksize for task 159: unlimited
  | Maximum stacksize for task 160: unlimited
  | Maximum stacksize for task 161: unlimited
  | Maximum stacksize for task 162: unlimited
  | Maximum stacksize for task 163: unlimited
  | Maximum stacksize for task 164: unlimited
  | Maximum stacksize for task 165: unlimited
  | Maximum stacksize for task 166: unlimited
  | Maximum stacksize for task 167: unlimited
  | Maximum stacksize for task 168: unlimited
  | Maximum stacksize for task 169: unlimited
  | Maximum stacksize for task 170: unlimited
  | Maximum stacksize for task 171: unlimited
  | Maximum stacksize for task 172: unlimited
  | Maximum stacksize for task 173: unlimited
  | Maximum stacksize for task 174: unlimited
  | Maximum stacksize for task 175: unlimited
  | Maximum stacksize for task 176: unlimited
  | Maximum stacksize for task 177: unlimited
  | Maximum stacksize for task 178: unlimited
  | Maximum stacksize for task 179: unlimited
  | Maximum stacksize for task 180: unlimited
  | Maximum stacksize for task 181: unlimited
  | Maximum stacksize for task 182: unlimited
  | Maximum stacksize for task 183: unlimited
  | Maximum stacksize for task 184: unlimited
  | Maximum stacksize for task 185: unlimited
  | Maximum stacksize for task 186: unlimited
  | Maximum stacksize for task 187: unlimited
  | Maximum stacksize for task 188: unlimited
  | Maximum stacksize for task 189: unlimited
  | Maximum stacksize for task 190: unlimited
  | Maximum stacksize for task 191: unlimited
  | Maximum stacksize for task 192: unlimited
  | Maximum stacksize for task 193: unlimited
  | Maximum stacksize for task 194: unlimited
  | Maximum stacksize for task 195: unlimited
  | Maximum stacksize for task 196: unlimited
  | Maximum stacksize for task 197: unlimited
  | Maximum stacksize for task 198: unlimited
  | Maximum stacksize for task 199: unlimited
  | Maximum stacksize for task 200: unlimited
  | Maximum stacksize for task 201: unlimited
  | Maximum stacksize for task 202: unlimited
  | Maximum stacksize for task 203: unlimited
  | Maximum stacksize for task 204: unlimited
  | Maximum stacksize for task 205: unlimited
  | Maximum stacksize for task 206: unlimited
  | Maximum stacksize for task 207: unlimited
  | Maximum stacksize for task 208: unlimited
  | Maximum stacksize for task 209: unlimited
  | Maximum stacksize for task 210: unlimited
  | Maximum stacksize for task 211: unlimited
  | Maximum stacksize for task 212: unlimited
  | Maximum stacksize for task 213: unlimited
  | Maximum stacksize for task 214: unlimited
  | Maximum stacksize for task 215: unlimited
  | Current stacksize for task 0: unlimited
  | Current stacksize for task 1: unlimited
  | Current stacksize for task 2: unlimited
  | Current stacksize for task 3: unlimited
  | Current stacksize for task 4: unlimited
  | Current stacksize for task 5: unlimited
  | Current stacksize for task 6: unlimited
  | Current stacksize for task 7: unlimited
  | Current stacksize for task 8: unlimited
  | Current stacksize for task 9: unlimited
  | Current stacksize for task 10: unlimited
  | Current stacksize for task 11: unlimited
  | Current stacksize for task 12: unlimited
  | Current stacksize for task 13: unlimited
  | Current stacksize for task 14: unlimited
  | Current stacksize for task 15: unlimited
  | Current stacksize for task 16: unlimited
  | Current stacksize for task 17: unlimited
  | Current stacksize for task 18: unlimited
  | Current stacksize for task 19: unlimited
  | Current stacksize for task 20: unlimited
  | Current stacksize for task 21: unlimited
  | Current stacksize for task 22: unlimited
  | Current stacksize for task 23: unlimited
  | Current stacksize for task 24: unlimited
  | Current stacksize for task 25: unlimited
  | Current stacksize for task 26: unlimited
  | Current stacksize for task 27: unlimited
  | Current stacksize for task 28: unlimited
  | Current stacksize for task 29: unlimited
  | Current stacksize for task 30: unlimited
  | Current stacksize for task 31: unlimited
  | Current stacksize for task 32: unlimited
  | Current stacksize for task 33: unlimited
  | Current stacksize for task 34: unlimited
  | Current stacksize for task 35: unlimited
  | Current stacksize for task 36: unlimited
  | Current stacksize for task 37: unlimited
  | Current stacksize for task 38: unlimited
  | Current stacksize for task 39: unlimited
  | Current stacksize for task 40: unlimited
  | Current stacksize for task 41: unlimited
  | Current stacksize for task 42: unlimited
  | Current stacksize for task 43: unlimited
  | Current stacksize for task 44: unlimited
  | Current stacksize for task 45: unlimited
  | Current stacksize for task 46: unlimited
  | Current stacksize for task 47: unlimited
  | Current stacksize for task 48: unlimited
  | Current stacksize for task 49: unlimited
  | Current stacksize for task 50: unlimited
  | Current stacksize for task 51: unlimited
  | Current stacksize for task 52: unlimited
  | Current stacksize for task 53: unlimited
  | Current stacksize for task 54: unlimited
  | Current stacksize for task 55: unlimited
  | Current stacksize for task 56: unlimited
  | Current stacksize for task 57: unlimited
  | Current stacksize for task 58: unlimited
  | Current stacksize for task 59: unlimited
  | Current stacksize for task 60: unlimited
  | Current stacksize for task 61: unlimited
  | Current stacksize for task 62: unlimited
  | Current stacksize for task 63: unlimited
  | Current stacksize for task 64: unlimited
  | Current stacksize for task 65: unlimited
  | Current stacksize for task 66: unlimited
  | Current stacksize for task 67: unlimited
  | Current stacksize for task 68: unlimited
  | Current stacksize for task 69: unlimited
  | Current stacksize for task 70: unlimited
  | Current stacksize for task 71: unlimited
  | Current stacksize for task 72: unlimited
  | Current stacksize for task 73: unlimited
  | Current stacksize for task 74: unlimited
  | Current stacksize for task 75: unlimited
  | Current stacksize for task 76: unlimited
  | Current stacksize for task 77: unlimited
  | Current stacksize for task 78: unlimited
  | Current stacksize for task 79: unlimited
  | Current stacksize for task 80: unlimited
  | Current stacksize for task 81: unlimited
  | Current stacksize for task 82: unlimited
  | Current stacksize for task 83: unlimited
  | Current stacksize for task 84: unlimited
  | Current stacksize for task 85: unlimited
  | Current stacksize for task 86: unlimited
  | Current stacksize for task 87: unlimited
  | Current stacksize for task 88: unlimited
  | Current stacksize for task 89: unlimited
  | Current stacksize for task 90: unlimited
  | Current stacksize for task 91: unlimited
  | Current stacksize for task 92: unlimited
  | Current stacksize for task 93: unlimited
  | Current stacksize for task 94: unlimited
  | Current stacksize for task 95: unlimited
  | Current stacksize for task 96: unlimited
  | Current stacksize for task 97: unlimited
  | Current stacksize for task 98: unlimited
  | Current stacksize for task 99: unlimited
  | Current stacksize for task 100: unlimited
  | Current stacksize for task 101: unlimited
  | Current stacksize for task 102: unlimited
  | Current stacksize for task 103: unlimited
  | Current stacksize for task 104: unlimited
  | Current stacksize for task 105: unlimited
  | Current stacksize for task 106: unlimited
  | Current stacksize for task 107: unlimited
  | Current stacksize for task 108: unlimited
  | Current stacksize for task 109: unlimited
  | Current stacksize for task 110: unlimited
  | Current stacksize for task 111: unlimited
  | Current stacksize for task 112: unlimited
  | Current stacksize for task 113: unlimited
  | Current stacksize for task 114: unlimited
  | Current stacksize for task 115: unlimited
  | Current stacksize for task 116: unlimited
  | Current stacksize for task 117: unlimited
  | Current stacksize for task 118: unlimited
  | Current stacksize for task 119: unlimited
  | Current stacksize for task 120: unlimited
  | Current stacksize for task 121: unlimited
  | Current stacksize for task 122: unlimited
  | Current stacksize for task 123: unlimited
  | Current stacksize for task 124: unlimited
  | Current stacksize for task 125: unlimited
  | Current stacksize for task 126: unlimited
  | Current stacksize for task 127: unlimited
  | Current stacksize for task 128: unlimited
  | Current stacksize for task 129: unlimited
  | Current stacksize for task 130: unlimited
  | Current stacksize for task 131: unlimited
  | Current stacksize for task 132: unlimited
  | Current stacksize for task 133: unlimited
  | Current stacksize for task 134: unlimited
  | Current stacksize for task 135: unlimited
  | Current stacksize for task 136: unlimited
  | Current stacksize for task 137: unlimited
  | Current stacksize for task 138: unlimited
  | Current stacksize for task 139: unlimited
  | Current stacksize for task 140: unlimited
  | Current stacksize for task 141: unlimited
  | Current stacksize for task 142: unlimited
  | Current stacksize for task 143: unlimited
  | Current stacksize for task 144: unlimited
  | Current stacksize for task 145: unlimited
  | Current stacksize for task 146: unlimited
  | Current stacksize for task 147: unlimited
  | Current stacksize for task 148: unlimited
  | Current stacksize for task 149: unlimited
  | Current stacksize for task 150: unlimited
  | Current stacksize for task 151: unlimited
  | Current stacksize for task 152: unlimited
  | Current stacksize for task 153: unlimited
  | Current stacksize for task 154: unlimited
  | Current stacksize for task 155: unlimited
  | Current stacksize for task 156: unlimited
  | Current stacksize for task 157: unlimited
  | Current stacksize for task 158: unlimited
  | Current stacksize for task 159: unlimited
  | Current stacksize for task 160: unlimited
  | Current stacksize for task 161: unlimited
  | Current stacksize for task 162: unlimited
  | Current stacksize for task 163: unlimited
  | Current stacksize for task 164: unlimited
  | Current stacksize for task 165: unlimited
  | Current stacksize for task 166: unlimited
  | Current stacksize for task 167: unlimited
  | Current stacksize for task 168: unlimited
  | Current stacksize for task 169: unlimited
  | Current stacksize for task 170: unlimited
  | Current stacksize for task 171: unlimited
  | Current stacksize for task 172: unlimited
  | Current stacksize for task 173: unlimited
  | Current stacksize for task 174: unlimited
  | Current stacksize for task 175: unlimited
  | Current stacksize for task 176: unlimited
  | Current stacksize for task 177: unlimited
  | Current stacksize for task 178: unlimited
  | Current stacksize for task 179: unlimited
  | Current stacksize for task 180: unlimited
  | Current stacksize for task 181: unlimited
  | Current stacksize for task 182: unlimited
  | Current stacksize for task 183: unlimited
  | Current stacksize for task 184: unlimited
  | Current stacksize for task 185: unlimited
  | Current stacksize for task 186: unlimited
  | Current stacksize for task 187: unlimited
  | Current stacksize for task 188: unlimited
  | Current stacksize for task 189: unlimited
  | Current stacksize for task 190: unlimited
  | Current stacksize for task 191: unlimited
  | Current stacksize for task 192: unlimited
  | Current stacksize for task 193: unlimited
  | Current stacksize for task 194: unlimited
  | Current stacksize for task 195: unlimited
  | Current stacksize for task 196: unlimited
  | Current stacksize for task 197: unlimited
  | Current stacksize for task 198: unlimited
  | Current stacksize for task 199: unlimited
  | Current stacksize for task 200: unlimited
  | Current stacksize for task 201: unlimited
  | Current stacksize for task 202: unlimited
  | Current stacksize for task 203: unlimited
  | Current stacksize for task 204: unlimited
  | Current stacksize for task 205: unlimited
  | Current stacksize for task 206: unlimited
  | Current stacksize for task 207: unlimited
  | Current stacksize for task 208: unlimited
  | Current stacksize for task 209: unlimited
  | Current stacksize for task 210: unlimited
  | Current stacksize for task 211: unlimited
  | Current stacksize for task 212: unlimited
  | Current stacksize for task 213: unlimited
  | Current stacksize for task 214: unlimited
  | Current stacksize for task 215: unlimited
 
  Consistency checks for the contents of control.in are next.
 
  MPI_IN_PLACE appears to work with this MPI implementation.
  | Keeping use_mpi_in_place .true. (see manual).
  Target number of points in a grid batch is not set. Defaulting to  100
  Method for grid partitioning is not set. Defaulting to parallel hash+maxmin partitioning.
  Batch size limit is not set. Defaulting to    200
  By default, will store active basis functions for each batch.
  If in need of memory, prune_basis_once .false. can be used to disable this option.
  communication_type for Hartree potential was not specified.
  Defaulting to calc_hartree .
  Defaulting to Pulay charge density mixer.
  Pulay mixer: Number of relevant iterations not set.
  Defaulting to    8 iterations.
  Pulay mixer: Number of initial linear mixing iterations not set.
  Defaulting to    0 iterations.
  Work space size for distributed Hartree potential not set.
  Defaulting to   0.200000E+03 MB.
  Mixing parameter for charge density mixing has not been set.
  Using default: charge_mix_param =     0.0500.
  The mixing parameter will be adjusted in iteration number     2 of the first full s.c.f. cycle only.
  Mixing parameter for spin density mixing has not been set.
  Using charge_mix_param as default:     0.0500.
  Algorithm-dependent basis array size parameters:
  | n_max_pulay                         :        8
  Maximum number of self-consistency iterations not provided.
  Presetting  1000 iterations.
  Presetting      1001 iterations before the initial mixing cycle
  is restarted anyway using the sc_init_iter criterion / keyword.
  Presetting a factor      1.000 between actual scf density residual
  and density convergence criterion sc_accuracy_rho below which sc_init_iter
  takes no effect.
 * No s.c.f. convergence criteria (sc_accuracy_*) were provided in control.in.
 * The run will proceed with a reasonable default guess, but please check whether.
 * the s.c.f. cycles seem to take too much or too little time.
  Calculation of forces was not defined in control.in. No forces will be calculated.
  Geometry relaxation not requested: no relaxation will be performed.
 * Notice: The s.c.f. convergence criterion sc_accuracy_rho was not provided.
 * We used to stop in this case, and ask the user to provide reasonable
 * scf convergence criteria. However, this led some users to employ criteria
 * that led to extremely long run times, e.g., for simple relaxation.
[...]
   3182       0.00000                       6.920493           6.928985             0.000002
   3183       0.00000                       7.035112           7.038556             0.109571
   3184       0.00000                       7.035115           7.038559             0.000004
   3185       0.00000                       7.046454           7.052777             0.014218
   3186       0.00000                       7.046455           7.052778             0.000001
   3187       0.00000                       7.048059           7.055828             0.003050
   3188       0.00000                       7.048061           7.055829             0.000001
   3189       0.00000                       7.094489           7.081162             0.025333
   3190       0.00000                       7.094490           7.081166             0.000004
   3191       0.00000                       7.098572           7.101298             0.020132
   3192       0.00000                       7.098576           7.101300             0.000001
   3193       0.00000                       7.099114           7.119695             0.018396
   3194       0.00000                       7.099118           7.119699             0.000004
   3195       0.00000                       7.129421           7.137935             0.018236
   3196       0.00000                       7.129424           7.137938             0.000003
   3197       0.00000                       7.154180           7.160777             0.022839
   3198       0.00000                       7.154184           7.160781             0.000004
   3199       0.00000                       7.167598           7.171363             0.010582
   3200       0.00000                       7.167602           7.171366             0.000003
   3201       0.00000                       7.168433           7.173520             0.002154
   3202       0.00000                       7.168437           7.173524             0.000004
   3203       0.00000                       7.186192           7.193823             0.020299
   3204       0.00000                       7.186195           7.193824             0.000001
   3205       0.00000                       7.205210           7.208045             0.014221
   3206       0.00000                       7.205213           7.208047             0.000001
   3207       0.00000                       7.206155           7.213769             0.005722
   3208       0.00000                       7.206157           7.213770             0.000001
   3209       0.00000                       7.232928           7.233734             0.019964
   3210       0.00000                       7.232931           7.233739             0.000005
   3211       0.00000                       7.233206           7.237336             0.003597
   3212       0.00000                       7.233210           7.237339             0.000003
   3213       0.00000                       7.235985           7.241779             0.004440
   3214       0.00000                       7.235990           7.241782             0.000003
   3215       0.00000                       7.237251           7.252477             0.010695
   3216       0.00000                       7.237257           7.252480             0.000003
   3217       0.00000                       7.242554           7.267915             0.015435
   3218       0.00000                       7.242558           7.267920             0.000005
   3219       0.00000                       7.356215           7.350081             0.082161
   3220       0.00000                       7.356218           7.350082             0.000001
   3221       0.00000                       7.356751           7.361432             0.011349
   3222       0.00000                       7.356754           7.361434             0.000003
   3223       0.00000                       7.376562           7.381994             0.020560
   3224       0.00000                       7.376568           7.381995             0.000001
   3225       0.00000                       7.377010           7.403840             0.021845
   3226       0.00000                       7.377015           7.403845             0.000005
   3227       0.00000                       7.402484           7.411136             0.007291
   3228       0.00000                       7.402487           7.411139             0.000003
   3229       0.00000                       7.476999           7.462495             0.051356
   3230       0.00000                       7.477003           7.462499             0.000004
   3231       0.00000                       7.478647           7.481199             0.018700
   3232       0.00000                       7.478651           7.481201             0.000002
   3233       0.00000                       7.479496           7.487888             0.006687
   3234       0.00000                       7.479499           7.487890             0.000003
   3235       0.00000                       7.480118           7.488634             0.000744
   3236       0.00000                       7.480121           7.488637             0.000003
   3237       0.00000                       7.481221           7.510674             0.022037
   3238       0.00000                       7.481225           7.510677             0.000003
   3239       0.00000                       7.523251           7.535882             0.025206
   3240       0.00000                       7.523255           7.535887             0.000004
   3241       0.00000                       7.575540           7.588179             0.052292
   3242       0.00000                       7.575543           7.588182             0.000003
   3243       0.00000                       7.576248           7.591315             0.003133
   3244       0.00000                       7.576253           7.591321             0.000006
   3245       0.00000                       7.576967           7.594761             0.003441
   3246       0.00000                       7.576971           7.594765             0.000003
   3247       0.00000                       7.775998           7.774185             0.179420
   3248       0.00000                       7.776000           7.774187             0.000003
   3249       0.00000                       7.776123           7.790562             0.016375
   3250       0.00000                       7.776126           7.790565             0.000003
   3251       0.00000                       7.835774           7.846985             0.056421
   3252       0.00000                       7.835778           7.846990             0.000004
   3253       0.00000                       7.850072           7.854835             0.007845
   3254       0.00000                       7.850075           7.854838             0.000004
   3255       0.00000                       7.850625           7.868976             0.014138
   3256       0.00000                       7.850628           7.868980             0.000004
   3257       0.00000                       7.877971           7.883855             0.014875
   3258       0.00000                       7.877974           7.883858             0.000003
   3259       0.00000                       7.977392           7.990053             0.106195
   3260       0.00000                       7.977398           7.990059             0.000005
   3261       0.00000                       8.021470           8.026813             0.036754
   3262       0.00000                       8.021473           8.026816             0.000003
   3263       0.00000                       8.021983           8.033122             0.006306
   3264       0.00000                       8.021986           8.033124             0.000002
   3265       0.00000                       8.076703           8.088738             0.055614
   3266       0.00000                       8.076708           8.088743             0.000005

  What follows are estimated values for band gap, HOMO, LUMO, etc.
  | They are estimated on a discrete k-point grid and not necessarily exact.
  | For converged numbers, create a DOS and/or band structure plot on a denser k-grid.

  Highest occupied state (VBM) at     -5.37669969 eV (relative to internal zero)
  | Occupation number:      1.00000000
  | K-point:       2 at    0.000000    0.500000    0.000000 (in units of recip. lattice)

  Lowest unoccupied state (CBM) at    -4.34053909 eV (relative to internal zero)
  | Occupation number:      0.00000000
  | K-point:       2 at    0.000000    0.500000    0.000000 (in units of recip. lattice)

  ESTIMATED overall HOMO-LUMO gap:      1.03616060 eV between HOMO at k-point 2 and LUMO at k-point 2
  | This appears to be a direct band gap.
  The gap value is above 0.2 eV. Unless you are using a very sparse k-point grid,
  this system is most likely an insulator or a semiconductor.
  | Potential vacuum level, "upper" slab surface:    -0.05048913 eV
  | Potential vacuum level, "lower" slab surface:    -0.05047282 eV
  | Work function ("upper" slab surface)        :     4.58294396 eV
  | Work function ("lower" slab surface)        :     4.58296026 eV
  *** Warning: band gap may exist, check the suitability to define work function using chemical potential.
  | VBM (reference: upper vacuum level)         :     5.32621056 eV
  | CBM (reference: upper vacuum level)         :     4.29004996 eV

  Spin-orbit coupling                                     :  max(cpu_time)    wall_clock(cpu1)
  | Computing matrix elements for SOC operator            :          8.820               8.831
  | Constructing second-variational Hamiltonian           :          1.960               1.961
  | Diagonalizing second-variational Hamiltonian          :          1.174               1.174
  | Syncing data and calculating occupations              :          0.043               0.031
  | Writing out data, calculating band gaps, etc.         :          0.012               0.013
  | Total SOC time                                        :         12.019              12.019

  Partial memory accounting:
  | Current value for overall tracked memory usage:
  |   Minimum:       69.527 MB (on task  53)
  |   Maximum:       70.005 MB (on task   0)
  |   Average:       69.912 MB
  | Peak value for overall tracked memory usage:
  |   Minimum:      164.945 MB (on task 153 after allocating potential_shell)
  |   Maximum:      167.335 MB (on task 170 after allocating potential_shell)
  |   Average:      166.239 MB
  | Largest tracked array allocation so far:
  |   Minimum:       76.567 MB (soc_matrix on task   0)
  |   Maximum:       76.567 MB (soc_matrix on task   0)
  |   Average:       76.567 MB
  Note:  These values currently only include a subset of arrays which are explicitly tracked.
  The "true" memory usage will be greater.
 ------------------------------------------------------------
 Work function related results without post-SCF corrections:
 ------------------------------------------------------------
  | Chemical Potential                          :    -5.34392570 eV
  Writing energy levels:
  | Potential vacuum level, "upper" slab surface:    -0.05048913 eV
  | Potential vacuum level, "lower" slab surface:    -0.05047282 eV
  Spin-up energy levels:
  | Work function-spin ("upper" slab surface)   :     5.29343657 eV
  | Work function-spin ("lower" slab surface)   :     5.29345287 eV
  *** Warning: band gap may exist, check the suitability to define work function using chemical potential.
  | VBM-spin (reference: upper vacuum level)    :     5.39280640 eV
  | CBM-spin (reference: upper vacuum level)    :     4.26699517 eV
  Spin-down energy levels:
  | Work function-spin ("upper" slab surface)   :     5.29343657 eV
  | Work function-spin ("lower" slab surface)   :     5.29345287 eV
  *** Warning: band gap may exist, check the suitability to define work function using chemical potential.
  | VBM-spin (reference: upper vacuum level)    :     5.39280250 eV
  | CBM-spin (reference: upper vacuum level)    :     4.26700744 eV
 ------------------------------------------------------------
 Work function related results including post-SCF second variational SOC corrections:
 ------------------------------------------------------------
  | Chemical Potential                          :    -4.63343308 eV
  Writing energy levels:
  | Potential vacuum level, "upper" slab surface:    -0.05048913 eV
  | Potential vacuum level, "lower" slab surface:    -0.05047282 eV
  | Work function ("upper" slab surface)        :     4.58294396 eV
  | Work function ("lower" slab surface)        :     4.58296026 eV
  *** Warning: band gap may exist, check the suitability to define work function using chemical potential.
  | VBM (reference: upper vacuum level)         :     5.32621056 eV
  | CBM (reference: upper vacuum level)         :     4.29004996 eV
 ------------------------------------------------------------

------------------------------------------------------------------------------
  Final output of selected total energy values:

  The following output summarizes some interesting total energy values
  at the end of a run (AFTER all relaxation, molecular dynamics, etc.).

  | Total energy of the DFT / Hartree-Fock s.c.f. calculation      :       -5975219.383230842 eV
  | Final zero-broadening corrected energy (caution - metals only) :       -5975219.383230842 eV
  | Total energy after non-SC SOC correction (DO NOT USE)          :       -5975222.564698309 eV
  | For reference only, the value of 1 Hartree used in FHI-aims is :             27.211384500 eV
  | For reference only, the overall average (free atom contribution
  | + realspace contribution) of the electrostatic potential after
  | s.c.f. convergence is                                          :             -1.223477970 eV

  Before relying on these values, please be sure to understand exactly which
  total energy value is referred to by a given number. Different objects may
  all carry the same name 'total energy'. Definitions:

  Total energy of the DFT / Hartree-Fock s.c.f. calculation:
  | Note that this energy does not include ANY quantities calculated after the
  | s.c.f. cycle, in particular not ANY RPA, MP2, etc. many-body perturbation terms.

  Final zero-broadening corrected energy:
  | For metallic systems only, a broadening of the occupation numbers at the Fermi
  | level can be extrapolated back to zero broadening by an electron-gas inspired
  | formula. For all systems that are not real metals, this value can be
  | meaningless and should be avoided.

------------------------------------------------------------------------------
  Methods described in the following list of references were used in this FHI-aims run.
  If you publish the results, please make sure to cite these reference if they apply.
  FHI-aims is an academic code, and for our developers (often, Ph.D. students
  and postdocs), scientific credit in the community is essential.
  Thank you for helping us!

  For any use of FHI-aims, please cite:

    Volker Blum, Ralf Gehrke, Felix Hanke, Paula Havu, Ville Havu,
    Xinguo Ren, Karsten Reuter, and Matthias Scheffler
    'Ab initio molecular simulations with numeric atom-centered orbitals'
    Computer Physics Communications 180, 2175-2196 (2009)
    http://doi.org/10.1016/j.cpc.2009.06.022


  The provided symmetry information was generated with SPGlib:

    Atsushi Togo, Yusuke Seto, Dimitar Pashov
    SPGlib 1.7.3 obtained from http://spglib.sourceforge.net
    Copyright (C) 2008 Atsushi Togo


  For second-variational spin-orbit coupling used in your run, please cite:

    William P. Huhn and Volker Blum,
    'One-hundred-three compound band-structure benchmark of post-self-consistent'
    'spin-orbit coupling treatments in density functional theory'
    Phys. Rev. Materials 1, 033803 (2017).


  The ELSI infrastructure was used in your run to solve the Kohn-Sham electronic structure.
  Please check out http://elsi-interchange.org to learn more.
  If scalability is important for your project, please acknowledge ELSI by citing:

    V. W-z. Yu, F. Corsetti, A. Garcia, W. P. Huhn, M. Jacquelin, W. Jia,
    B. Lange, L. Lin, J. Lu, W. Mi, A. Seifitokaldani, A. Vazquez-Mayagoitia,
    C. Yang, H. Yang, and V. Blum
    'ELSI: A unified software interface for Kohn-Sham electronic structure solvers'
    Computer Physics Communications 222, 267-285 (2018).
    http://doi.org/10.1016/j.cpc.2017.09.007


  For the real-space grid partitioning and parallelization used in this calculation, please cite:

    Ville Havu, Volker Blum, Paula Havu, and Matthias Scheffler,
    'Efficient O(N) integration for all-electron electronic structure calculation'
    'using numerically tabulated basis functions'
    Journal of Computational Physics 228, 8367-8379 (2009).
    http://doi.org/10.1016/j.jcp.2009.08.008

  Of course, there are many other important community references, e.g., those cited in the
  above references. Our list is limited to references that describe implementations in the
  FHI-aims code. The reason is purely practical (length of this list) - please credit others as well.

------------------------------------------------------------
          Leaving FHI-aims.
          Date     :  20220913, Time     :  135006.792

          Computational steps:
          | Number of self-consistency cycles          :           33
          | Number of SCF (re)initializations          :            1

          Detailed time accounting                     :  max(cpu_time)    wall_clock(cpu1)
          | Total time                                  :      312.530 s         312.700 s
          | Preparation time                            :        1.331 s           1.331 s
          | Boundary condition initalization            :        0.830 s           0.830 s
          | Grid partitioning                           :        1.001 s           1.002 s
          | Preloading free-atom quantities on grid     :        3.429 s           3.430 s
          | Free-atom superposition energy              :        0.046 s           0.046 s
          | Total time for integrations                 :       64.155 s          64.154 s
          | Total time for solution of K.-S. equations  :       23.080 s          23.077 s
          | Total time for density update               :      128.182 s         128.225 s
          | Total time for mixing & preconditioning     :       22.665 s          22.658 s
          | Total time for Hartree multipole update     :        0.402 s           0.406 s
          | Total time for Hartree multipole sum        :       49.701 s          49.709 s
          | Total time for total energy evaluation      :        0.031 s           0.039 s
          | Total time for scaled ZORA corrections      :        0.000 s           0.000 s
          | Total time for vdW correction               :        4.796 s           4.798 s
          | Total time for matrix I/O                   :        5.138 s           5.443 s
          | Total time for perturbative SOC             :       12.019 s          12.019 s

          Partial memory accounting:
          | Residual value for overall tracked memory usage across tasks:     0.000000 MB (should be 0.000000 MB)
          | Peak values for overall tracked memory usage:
          |   Minimum:      164.945 MB (on task 153 after allocating potential_shell)
          |   Maximum:      167.335 MB (on task 170 after allocating potential_shell)
          |   Average:      166.239 MB
          | Largest tracked array allocation:
          |   Minimum:       76.567 MB (soc_matrix on task   0)
          |   Maximum:       76.567 MB (soc_matrix on task   0)
          |   Average:       76.567 MB
          Note:  These values currently only include a subset of arrays which are explicitly tracked.
          The "true" memory usage will be greater.

          Have a nice day.
------------------------------------------------------------
