------------------------------------------------------------
          Invoking FHI-aims ...

          When using FHI-aims, please cite the following reference:

            Volker Blum, Ralf Gehrke, Felix Hanke, Paula Havu,
            Ville Havu, Xinguo Ren, Karsten Reuter, and Matthias Scheffler,
            'Ab Initio Molecular Simulations with Numeric Atom-Centered Orbitals',
            Computer Physics Communications 180, 2175-2196 (2009)

          In addition, many other developments in FHI-aims are likely important for
          your particular application. A partial list of references is given at the end of
          this file. Thank you for giving credit to the authors of these developments.

          For any questions about FHI-aims, please visit our slack channel at

            https://fhi-aims.slack.com

          and our main development and support site at

            https://aims-git.rz-berlin.mpg.de .

          The latter site, in particular, has a wiki to collect information, as well
          as an issue tracker to log discussions, suggest improvements, and report issues
          or bugs. https://aims-git.rz-berlin.mpg.de is also the main development site
          of the project and all new and updated code versions can be obtained there.
          Please send an email to aims-coordinators@fhi-berlin.mpg.de and we will add
          you to these sites. They are for you and everyone is welcome there.

------------------------------------------------------------



  Date     :  20220925, Time     :  114649.830
  Time zero on CPU 1             :   0.498787000000000E+00  s.
  Internal wall clock time zero  :           433338409.830  s.

  FHI-aims created a unique identifier for this run for later identification
  aims_uuid : A1D92814-4625-444F-AE16-ACBDBBBF7152

  Build configuration of the current instance of FHI-aims
  -------------------------------------------------------
  FHI-aims version      : 220208
  Commit number         : f4a9b4d18
  CMake host system     : Linux-4.12.14-122.88-default
  CMake version         : 3.22.0
  Fortran compiler      : /mpcdf/soft/SLE_12/packages/x86_64/intel_oneapi/2021.3/mpi/2021.3.0/bin/mpiifort (Intel) version 2021.3.0.20210609
  Fortran compiler flags: -O3 -ip -fp-model precise
  C compiler            : /mpcdf/soft/SLE_12/packages/x86_64/intel/2021.3.0/bin/icc (Intel) version 2021.3.0.20210609
  C compiler flags      : -O3 -ip -fp-model precise
  C++ compiler          : /mpcdf/soft/SLE_12/packages/x86_64/intel/2021.3.0/bin/icpc (Intel) version 2021.3.0.20210609
  C++ compiler flags    : -O3 -ip -fp-model precise -std=gnu99
  Using MPI
  Using ScaLAPACK
  Using LibXC
  Using i-PI
  Using RLSY
  Linking against: /mpcdf/soft/SLE_12/packages/x86_64/intel_oneapi/2021.3/mkl/latest/lib/intel64/libmkl_intel_lp64.so
                   /mpcdf/soft/SLE_12/packages/x86_64/intel_oneapi/2021.3/mkl/latest/lib/intel64/libmkl_sequential.so
                   /mpcdf/soft/SLE_12/packages/x86_64/intel_oneapi/2021.3/mkl/latest/lib/intel64/libmkl_core.so
                   /mpcdf/soft/SLE_12/packages/x86_64/intel_oneapi/2021.3/mkl/latest/lib/intel64/libmkl_blacs_intelmpi_lp64.so
                   /mpcdf/soft/SLE_12/packages/x86_64/intel_oneapi/2021.3/mkl/latest/lib/intel64/libmkl_scalapack_lp64.so

  Using      160 parallel tasks.
  Task        0 on host co2638 reporting.
  Task        1 on host co2638 reporting.
  Task        2 on host co2638 reporting.
  Task        3 on host co2638 reporting.
  Task        4 on host co2638 reporting.
  Task        5 on host co2638 reporting.
  Task        6 on host co2638 reporting.
  Task        7 on host co2638 reporting.
  Task        8 on host co2638 reporting.
  Task        9 on host co2638 reporting.
  Task       10 on host co2638 reporting.
  Task       11 on host co2638 reporting.
  Task       12 on host co2638 reporting.
  Task       13 on host co2638 reporting.
  Task       14 on host co2638 reporting.
  Task       15 on host co2638 reporting.
  Task       16 on host co2638 reporting.
  Task       17 on host co2638 reporting.
  Task       18 on host co2638 reporting.
  Task       19 on host co2638 reporting.
  Task       20 on host co2638 reporting.
  Task       21 on host co2638 reporting.
  Task       22 on host co2638 reporting.
  Task       23 on host co2638 reporting.
  Task       24 on host co2638 reporting.
  Task       25 on host co2638 reporting.
  Task       26 on host co2638 reporting.
  Task       27 on host co2638 reporting.
  Task       28 on host co2638 reporting.
  Task       29 on host co2638 reporting.
  Task       30 on host co2638 reporting.
  Task       31 on host co2638 reporting.
  Task       32 on host co2638 reporting.
  Task       33 on host co2638 reporting.
  Task       34 on host co2638 reporting.
  Task       35 on host co2638 reporting.
  Task       36 on host co2638 reporting.
  Task       37 on host co2638 reporting.
  Task       38 on host co2638 reporting.
  Task       39 on host co2638 reporting.
  Task       40 on host co2639 reporting.
  Task       41 on host co2639 reporting.
  Task       42 on host co2639 reporting.
  Task       43 on host co2639 reporting.
  Task       44 on host co2639 reporting.
  Task       45 on host co2639 reporting.
  Task       46 on host co2639 reporting.
  Task       47 on host co2639 reporting.
  Task       48 on host co2639 reporting.
  Task       49 on host co2639 reporting.
  Task       50 on host co2639 reporting.
  Task       51 on host co2639 reporting.
  Task       52 on host co2639 reporting.
  Task       53 on host co2639 reporting.
  Task       54 on host co2639 reporting.
  Task       55 on host co2639 reporting.
  Task       56 on host co2639 reporting.
  Task       57 on host co2639 reporting.
  Task       58 on host co2639 reporting.
  Task       59 on host co2639 reporting.
  Task       60 on host co2639 reporting.
  Task       61 on host co2639 reporting.
  Task       62 on host co2639 reporting.
  Task       63 on host co2639 reporting.
  Task       64 on host co2639 reporting.
  Task       65 on host co2639 reporting.
  Task       66 on host co2639 reporting.
  Task       67 on host co2639 reporting.
  Task       68 on host co2639 reporting.
  Task       69 on host co2639 reporting.
  Task       70 on host co2639 reporting.
  Task       71 on host co2639 reporting.
  Task       72 on host co2639 reporting.
  Task       73 on host co2639 reporting.
  Task       74 on host co2639 reporting.
  Task       75 on host co2639 reporting.
  Task       76 on host co2639 reporting.
  Task       77 on host co2639 reporting.
  Task       78 on host co2639 reporting.
  Task       79 on host co2639 reporting.
  Task       80 on host co2640 reporting.
  Task       81 on host co2640 reporting.
  Task       82 on host co2640 reporting.
  Task       83 on host co2640 reporting.
  Task       84 on host co2640 reporting.
  Task       85 on host co2640 reporting.
  Task       86 on host co2640 reporting.
  Task       87 on host co2640 reporting.
  Task       88 on host co2640 reporting.
  Task       89 on host co2640 reporting.
  Task       90 on host co2640 reporting.
  Task       91 on host co2640 reporting.
  Task       92 on host co2640 reporting.
  Task       93 on host co2640 reporting.
  Task       94 on host co2640 reporting.
  Task       95 on host co2640 reporting.
  Task       96 on host co2640 reporting.
  Task       97 on host co2640 reporting.
  Task       98 on host co2640 reporting.
  Task       99 on host co2640 reporting.
  Task      100 on host co2640 reporting.
  Task      101 on host co2640 reporting.
  Task      102 on host co2640 reporting.
  Task      103 on host co2640 reporting.
  Task      104 on host co2640 reporting.
  Task      105 on host co2640 reporting.
  Task      106 on host co2640 reporting.
  Task      107 on host co2640 reporting.
  Task      108 on host co2640 reporting.
  Task      109 on host co2640 reporting.
  Task      110 on host co2640 reporting.
  Task      111 on host co2640 reporting.
  Task      112 on host co2640 reporting.
  Task      113 on host co2640 reporting.
  Task      114 on host co2640 reporting.
  Task      115 on host co2640 reporting.
  Task      116 on host co2640 reporting.
  Task      117 on host co2640 reporting.
  Task      118 on host co2640 reporting.
  Task      119 on host co2640 reporting.
  Task      120 on host co2641 reporting.
  Task      121 on host co2641 reporting.
  Task      122 on host co2641 reporting.
  Task      123 on host co2641 reporting.
  Task      124 on host co2641 reporting.
  Task      125 on host co2641 reporting.
  Task      126 on host co2641 reporting.
  Task      127 on host co2641 reporting.
  Task      128 on host co2641 reporting.
  Task      129 on host co2641 reporting.
  Task      130 on host co2641 reporting.
  Task      131 on host co2641 reporting.
  Task      132 on host co2641 reporting.
  Task      133 on host co2641 reporting.
  Task      134 on host co2641 reporting.
  Task      135 on host co2641 reporting.
  Task      136 on host co2641 reporting.
  Task      137 on host co2641 reporting.
  Task      138 on host co2641 reporting.
  Task      139 on host co2641 reporting.
  Task      140 on host co2641 reporting.
  Task      141 on host co2641 reporting.
  Task      142 on host co2641 reporting.
  Task      143 on host co2641 reporting.
  Task      144 on host co2641 reporting.
  Task      145 on host co2641 reporting.
  Task      146 on host co2641 reporting.
  Task      147 on host co2641 reporting.
  Task      148 on host co2641 reporting.
  Task      149 on host co2641 reporting.
  Task      150 on host co2641 reporting.
  Task      151 on host co2641 reporting.
  Task      152 on host co2641 reporting.
  Task      153 on host co2641 reporting.
  Task      154 on host co2641 reporting.
  Task      155 on host co2641 reporting.
  Task      156 on host co2641 reporting.
  Task      157 on host co2641 reporting.
  Task      158 on host co2641 reporting.
  Task      159 on host co2641 reporting.

  Performing system and environment tests:
  | Environment variable OMP_NUM_THREADS correctly set to 1.
  | Checking for ScaLAPACK...
  | Testing pdtran()...
  | All pdtran() tests passed.

  Obtaining array dimensions for all initial allocations:
  
  -----------------------------------------------------------------------
  Parsing control.in (first pass over file, find array dimensions only).
  The contents of control.in will be repeated verbatim below
  unless switched off by setting 'verbatim_writeout .false.' .
  in the first line of control.in .
  -----------------------------------------------------------------------
  
  ##### Physical settings  ################
  xc                 pbe
  spin               collinear
  default_initial_moment 1
  charge      0.0
  relativistic       atomic_zora scalar
  #elsi_restart read
  # SCF settings
  #vdw_correction_hirshfeld
  occupation_type gaussian       0.01
  # k-grid settings  (to be adjusted)
  k_grid  4 4 1
  elsi_restart read_and_write 10
  empty_states 8
  include_spin_orbit non_self_consistent
  use_dipole_correction
  #output cube stm -0.5
  #mixer   pulay
  #n_max_pulay        12 # high for metal
  #charge_mix_param   0.07 #low for metal
  
  #output cube stm -0.5
  output dos_tetrahedron -10 0 2001 0.1
  output species_proj_dos_tetrahedron -10 0 2001 0.1
  many_body_dispersion_nl    beta=0.81
  ################################################################################
  #
  #  FHI-aims code project
  # Volker Blum, Fritz Haber Institute Berlin, 2009
  #
  #  Suggested "tight" defaults for S atom (to be pasted into control.in file)
  #
  #  Revised Jan 04, 2011, following tests (SiC) done by Lydia Nemec:
  #     d and g functions of tier 2 now enabled by default.
  #
  ################################################################################
    species        S
  #     global species definitions
      nucleus             16
      mass                32.065
  #
      l_hartree           6
  #
      cut_pot             4.0          2.0  1.0
      basis_dep_cutoff    1e-4
  #
      radial_base         44 7.0
      radial_multiplier   2
      angular_grids       specified
        division   0.4665  110
        division   0.5810  194
        division   0.7139  302
        division   0.8274  434
  #      division   0.9105  590
  #      division   1.0975  770
  #      division   1.2028  974
  #      outer_grid  974
        outer_grid  434
  ################################################################################
  #
  #  Definition of "minimal" basis
  #
  ################################################################################
  #     valence basis states
      valence      3  s   2.
      valence      3  p   4.
  #     ion occupancy
      ion_occ      3  s   1.
      ion_occ      3  p   3.
  ################################################################################
  #
  #  Suggested additional basis functions. For production calculations,
  #  uncomment them one after another (the most important basis functions are
  #  listed first).
  #
  #  Constructed for dimers: 1.6 A, 1.9 A, 2.5 A, 3.25 A, 4.0 A
  #
  ################################################################################
  #  "First tier" - improvements: -652.81 meV to -45.53 meV
       ionic 3 d auto
       hydro 2 p 1.8
       hydro 4 f 7
       ionic 3 s auto
  #  "Second tier" - improvements: -30.20 meV to -1.74 meV
       hydro 4 d 6.2
       hydro 5 g 10.8
  #     hydro 4 p 4.9
  #     hydro 5 f 10
  #     hydro 1 s 0.8
  #  "Third tier" - improvements: -1.04 meV to -0.20 meV
  #     hydro 3 d 3.9
  #     hydro 3 d 2.7
  #     hydro 5 g 12
  #     hydro 4 p 10.4
  #     hydro 5 f 12.4
  #     hydro 2 s 1.9
  #  "Fourth tier" - improvements: -0.35 meV to -0.06 meV
  #     hydro 4 d 10.4
  #     hydro 4 p 7.2
  #     hydro 4 d 10
  #     hydro 5 g 19.2
  #     hydro 4 s 12
  
  ################################################################################
  #
  # For methods that use the localized form of the "resolution of identity" for
  # the two-electron Coulomb operator (RI_method LVL), particularly Hartree-Fock and
  # hybrid density functional calculations, the highest accuracy can be obtained by
  # uncommenting the line beginning with "for_aux"  below, thus adding an extra g radial
  # function to the construction of the product basis set for the expansion.
  # See Ref. New J. Phys. 17, 093020 (2015) for more information, particularly Figs. 1 and 6.
  #
  ################################################################################
  #
  # for_aux hydro 5 g 6.0
  ################################################################################
  #
  #  FHI-aims code project
  # Volker Blum, Fritz Haber Institute Berlin, 2009
  #
  #  Suggested "tight" defaults for Mo atom (to be pasted into control.in file)
  #
  ################################################################################
    species        Mo
  #     global species definitions
      nucleus             42
      mass                95.94
  #
      l_hartree           6
  #
      cut_pot             4.0  2.0  1.0
      basis_dep_cutoff    1e-4
  #
      radial_base         59 7.0
      radial_multiplier   2
      angular_grids specified
        division   0.3117   50
        division   0.6750  110
        division   1.0351  194
        division   1.2073  302
        division   1.6402  434
  #      division   1.9185  590
  #      division   2.0237  770
  #      division   2.0980  974
  #      division   2.7972 1202
  #      outer_grid  974
        outer_grid  434
  ################################################################################
  #
  #  Definition of "minimal" basis
  #
  ################################################################################
  #     valence basis states
      valence      5  s   1.
      valence      4  p   6.
      valence      4  d   5.
  #     ion occupancy
      ion_occ     5  s   0.
      ion_occ     4  p   6.
      ion_occ     4  d   4.
  ################################################################################
  #
  #  Suggested additional basis functions. For production calculations,
  #  uncomment them one after another (the most important basis functions are
  #  listed first).
  #
  #  Constructed for dimers: 1.675 A, 1.9 A, 2.375 A, 3.00 A, 4.00 A
  #
  ################################################################################
  #  "First tier"  - max. impr. -711.23  meV, min. impr. -21.07 meV
       hydro 4 f 8.4
       hydro 3 d 2.8
       ionic 5 p auto
       hydro 5 g 12
       ionic 5 s auto
  #  "Second tier" - max. impr. -39.38  meV, min. impr. -2.68 meV
  #     hydro 4 f 12.4
  #     hydro 3 d 3.3
  #     hydro 6 h 17.2
  #     hydro 4 f 7.6
  #     hydro 3 p 3.0
  #     hydro 1 s 0.65
  #  "Third tier"  - max. impr. -5.50 meV, min. impr. -0.47 meV
  #     hydro 4 f 29.2
  #     hydro 5 g 11.2
  #     hydro 3 d 6.8
  #     hydro 6 h 14.8
  #     hydro 2 p 2.3
  #     hydro 4 s 3.8
  #  "Fourth tier"  - max. impr. -0.58 meV, min. impr. -0.19 meV
  #     hydro 5 f 6.8
  #     hydro 5 d 14.8
  #     hydro 6 s 7.8
  #     hydro 5 g 20.8
  #     hydro 5 d 10.4
  #     hydro 5 p 9.8
  #  Further functions - -0.17 meV and below
  #     hydro 5 d 3.2
  ################################################################################
  #
  #  FHI-aims code project
  # Volker Blum, Fritz Haber Institute Berlin, 2009
  #
  #  Suggested "tight" defaults for W atom (to be pasted into control.in file)
  #
  ################################################################################
    species          W
  #     global species definitions
      nucleus        74
      mass           183.84
  #
      l_hartree      6
  #
      cut_pot        4.0  2.0  1.0
      basis_dep_cutoff    1e-4
  #
      radial_base    71  7.0
      radial_multiplier  2
      angular_grids specified
        division   0.2901   50
        division   0.6986  110
        division   1.0528  194
        division   1.2659  302
        division   1.5223  434
  #      division   1.8111  590
  #      division   2.0105  770
  #      division   2.0413  974
  #      division   2.8804 1202
  #      outer_grid  974
        outer_grid  434
  ################################################################################
  #
  #  Definition of "minimal" basis
  #
  ################################################################################
  #     valence basis states
      valence      6  s   2.
      valence      5  p   6.
      valence      5  d   4.
      valence      4  f  14.
  #     ion occupancy
      ion_occ      6  s   1.
      ion_occ      5  p   6.
      ion_occ      5  d   3.
      ion_occ      4  f  14.
  ################################################################################
  #
  #  Suggested additional basis functions. For production calculations,
  #  uncomment them one after another (the most important basis functions are
  #  listed first).
  #
  #  Constructed for dimers: 1.775, 1.99, 2.50, 3.25, 4.50 AA
  #
  ################################################################################
  #
  #  "First tier" - improvements: -603.77 meV to -28.99 meV
       hydro 4 f 7.8
       hydro 4 d 5.8
       ionic 6 p auto
       hydro 5 g 12.4
       ionic 6 s auto
  #  "Second tier" - improvements: -28.30 meV to -1.31 meV
  #     hydro 6 h 16.8
  #     ionic 5 d auto
  #     hydro 4 f 8.6
  #     hydro 5 g 16.8
  #     hydro 5 d 8.4
  #     hydro 3 p 3.3
  #     hydro 1 s 0.55
  #  "Third tier" - max. impr. -1.79 meV, min. impr. -0.26 meV
  #     hydro 5 f 10.8
  #     hydro 5 g 34.4
  #     hydro 6 h 20.8
  #     hydro 5 g 12.8
  #     hydro 2 p 1.6
  #     hydro 4 s 4.7
  #     hydro 6 d 18.4
  #  "Fourth tier" -0.46 max. impr. - meV, min. impr. -0.09 meV
  #     hydro 6 h 21.6
  #     hydro 5 f 22.4
  #     hydro 4 f 4
  #     hydro 5 p 9.6
  #     hydro 6 d 17.2
  #     hydro 3 p 5.2
  #     hydro 5 g 4.7
  #     hydro 6 s 7.6
  ################################################################################
  #
  #  FHI-aims code project
  # Volker Blum, Fritz Haber Institute Berlin, 2009
  #
  #  Suggested "tight" defaults for Se atom (to be pasted into control.in file)
  #
  ################################################################################
    species        Se
  #     global species definitions
      nucleus             34
      mass                78.96
  #
      l_hartree           6
  #
      cut_pot             4.0          2.0  1.0
      basis_dep_cutoff    1e-4
  #
      radial_base         55 7.0
      radial_multiplier   2
      angular_grids       specified
        division   0.0830  110
        division   0.1357  194
        division   0.7377  302
        division   0.8610  434
  #      division   0.9640  590
  #      division   1.0773  770
  #      division   2.5539  974
  #      outer_grid  974
        outer_grid  434
  ################################################################################
  #
  #  Definition of "minimal" basis
  #
  ################################################################################
  #     valence basis states
      valence      4  s   2.
      valence      4  p   4.
      valence      3  d  10.
  #     ion occupancy
      ion_occ      4  s   1.
      ion_occ      4  p   3.
      ion_occ      3  d  10.
  ################################################################################
  #
  #  Suggested additional basis functions. For production calculations,
  #  uncomment them one after another (the most important basis functions are
  #  listed first).
  #
  #  Constructed for dimers: 1.85 A, 2.15 A, 2.50 A, 3.00 A, 4.00 A
  #
  ################################################################################
  #  "First tier" - improvements: -336.21 meV to -36.85 meV
       hydro 3 d 4.3
       hydro 2 p 1.6
       hydro 4 f 7.2
       ionic 4 s auto
  #  "Second tier" - improvements: -14.39 meV to -1.49 meV
  #     hydro 5 g 10.4
  #     hydro 4 p 4.5
  #     hydro 4 d 6.2
  #     hydro 4 f 11.2
  #     hydro 1 s 0.65
  #     hydro 6 h 15.2
  #  "Third tier" - improvements: -0.46 meV and below
  #     hydro 5 g 14.4
  #     ionic 4 d auto
  #     hydro 4 f 22.4
  #     hydro 5 f 7.4
  #     hydro 5 p 8
  #     hydro 5 s 9.4
  #  "Fourth tier" - improvements: -0.12 meV and below
  #     hydro 5 d 11.6
  #     hydro 6 h 18
  #     hydro 4 p 4
  #     hydro 5 f 16
  #     hydro 4 s 3.9
  
  
  
  -----------------------------------------------------------------------
  Completed first pass over input file control.in .
  -----------------------------------------------------------------------
  
  
  -----------------------------------------------------------------------
  Parsing geometry.in (first pass over file, find array dimensions only).
  The contents of geometry.in will be repeated verbatim below
  unless switched off by setting 'verbatim_writeout .false.' .
  in the first line of geometry.in .
  -----------------------------------------------------------------------
  
  #
  # This is the geometry file that corresponds to the current relaxation step.
  # If you do not want this file to be written, set the "write_restart_geometry" flag to .false.
  #  aims_uuid : 9AB8B196-DDAD-4787-A7FB-402006EC6753
  #
    set_vacuum_level        52.522244
  lattice_vector     15.80931190      0.00000000      0.00000000
  lattice_vector     -7.90633915     13.69010115      0.00000000
  lattice_vector      0.00000000      0.00000000     99.93885963
  atom       0.02515930      0.96147284      2.60969857 W
  atom       1.60596927      1.90241451      4.16913911 S
  atom       1.60596690      1.86448861      1.02375654 S
  atom      -1.54603420      3.70792200      2.60895065 W
  atom       0.07408067      4.68804610      4.14114528 S
  atom       0.00984418      4.61956669      0.98989309 S
  atom      -3.11804841      6.42998874      2.60892289 W
  atom      -1.45916091      7.34287559      4.14112266 S
  atom      -1.55049736      7.32146120      0.98985985 S
  atom      -4.71165474      9.16349791      2.60967465 W
  atom      -3.10629114     10.06190789      4.16912848 S
  atom      -3.13914415     10.08087039      1.02371911 S
  atom      -6.29996739     11.90549268      2.60995962 W
  atom      -4.71653308     12.81958973      4.18405669 S
  atom      -4.71596120     12.81992931      1.03620335 S
  atom       3.18691177      0.96146363      2.60968980 W
  atom       4.75513387      1.88230513      4.19261448 S
  atom       4.77475955      1.87089089      1.04175438 S
  atom       1.60569252      3.72351983      2.56892434 W
  atom       3.13719002      4.68797424      4.14114091 S
  atom       3.20138825      4.61957098      0.98992025 S
  atom       0.09105621      6.46790960      2.51729315 W
  atom       1.60530895      7.34204168      0.89072170 S
  atom      -1.52899972      9.15140933      2.56887302 W
  atom       0.07208349      9.99540160      4.14108463 S
  atom       0.04491017     10.08519043      0.98984842 S
  atom      -3.13110730     11.90138510      2.60967972 W
  atom      -1.54948760     12.79899689      4.19260091 S
  atom      -1.54959064     12.82171593      1.04173943 S
  atom       6.34731712      0.95251422      2.62699487 W
  atom       7.92527089      1.86349827      4.20867972 S
  atom       7.93180459      1.86728045      1.05694298 S
  atom       4.75746057      3.70791126      2.60894455 W
  atom       6.32972864      4.61488270      4.19661412 S
  atom       6.35344758      4.60118011      1.04423814 S
  atom       3.11965149      6.46789708      2.51732491 W
  atom       4.66975420      7.34287332      4.14113286 S
  atom       4.76109286      7.32147171      0.98990539 S
  atom       1.60504231      9.09053798      2.51724490 W
  atom       3.13781301      9.99534219      4.14110176 S
  atom       3.16501372     10.08520788      0.98985880 S
  atom       0.03301322     11.88848433      2.60890500 W
  atom       1.60461427     12.79654874      4.19659853 S
  atom       1.60463128     12.82394770      1.04421920 S
  atom       9.51069799      0.94957802      2.63235051 W
  atom      11.09598425      1.86349519      4.20869341 S
  atom      11.08946290      1.86727486      1.05694272 S
  atom       7.92613246      3.69335137      2.63235746 W
  atom       9.51028639      4.60919285      4.20868300 S
  atom       9.51029269      4.60163275      1.05694676 S
  atom       6.32880858      6.42997118      2.60894077 W
  atom       7.90858039      7.34497573      4.19261187 S
  atom       7.92827800      7.33368795      1.04174557 S
  atom       4.73906585      9.15142402      2.56890192 W
  atom       6.31622615     10.06192044      4.16913780 S
  atom       6.34907217     10.08089151      1.02372890 S
  atom       3.17636946     11.88848470      2.60892376 W
  atom       4.75872860     12.79899417      4.19262289 S
  atom       4.75882512     12.82172305      1.04174662 S
  atom      12.67408216      0.95251993      2.62701161 W
  atom      14.26612022      1.88232914      4.19262203 S
  atom      14.24648140      1.87089610      1.04176719 S
  atom      11.09457343      3.69332875      2.63236386 W
  atom      12.69084259      4.61488709      4.19660426 S
  atom      12.66711926      4.60116116      1.04425005 S
  atom       9.51003074      6.43121721      2.62698870 W
  atom      11.11132889      7.34497709      4.19259386 S
  atom      11.09162280      7.33368658      1.04174766 S
  atom       7.92172320      9.16350541      2.60967999 W
  atom       9.50960523     10.07715627      4.18407860 S
  atom       9.50960012     10.07649510      1.03618019 S
  atom       6.34049282     11.90140505      2.60968655 W
  atom       7.92575619     12.81960446      4.18407804 S
  atom       7.92517683     12.81994367      1.03619209 S
  #
  # What follows is the current estimated Hessian matrix constructed by the BFGS algorithm.
  # This is NOT the true Hessian matrix of the system.
  # If you do not want this information here, switch it off using the "hessian_to_restart_geometry" keyword.
  #
  
  -----------------------------------------------------------------------
  Completed first pass over input file geometry.in .
  -----------------------------------------------------------------------
  

  Basic array size parameters:
  | Number of species                 :        4
  | Number of atoms                   :       74
  | Number of lattice vectors         :        3
  | Max. basis fn. angular momentum   :        4
  | Max. atomic/ionic basis occupied n:        6
  | Max. number of basis fn. types    :        3
  | Max. radial fns per species/type  :       14
  | Max. logarithmic grid size        :     1483
  | Max. radial integration grid size :      143
  | Max. angular integration grid size:      434
  | Max. angular grid division number :        8
  | Radial grid for Hartree potential :     1483
  | Number of spin channels           :        2

------------------------------------------------------------
          Reading file control.in.
------------------------------------------------------------
  XC: Using PBE gradient-corrected functionals.
  Spin treatment: Spin density functional theory - collinear spins.
  Initial spin moment per atom:   1.0000
  Charge =   0.000000E+00: Neutral system requested explicitly.
  Scalar relativistic treatment of kinetic energy: on-site free-atom approximation to ZORA.
  Occupation type: Gaussian broadening, width =   0.100000E-01 eV.
  Found k-point grid:         4         4         1
  Number of empty states per atom:        8
  Calculating non-self-consistent second-variational spin-orbit coupling after scf-cycle
  You have request a SOC run with spin-polarization.
  symmetry_reduced_k_grid will be turned off.
  Using dipole correction.
  Calculating density of states with
  | energy interval :-10.000000  0.000000
  | points & tetrahedron method :  2001
  Calculating angular-momentum projected DOS with 
  | energy interval :-10.000000  0.000000
  | points & tetrahedron :  2001
  Using libMBD for calculating MBD and TS energies
 
  Reading configuration options for species S                   .
  | Found nuclear charge :  16.0000
  | Found atomic mass :    32.0650000000000      amu
  | Found l_max for Hartree potential  :   6
  | Found cutoff potl. onset [A], width [A], scale factor :    4.00000    2.00000    1.00000
  | Threshold for basis-dependent cutoff potential is   0.100000E-03
  | Found data for basic radial integration grid :    44 points, outermost radius =    7.000 A
  | Found multiplier for basic radial grid :   2
  | Found angular grid specification: user-specified.
  | Specified grid contains     5 separate shells.
  | Check grid settings after all constraints further below.
  | Found free-atom valence shell :  3 s   2.000
  | Found free-atom valence shell :  3 p   4.000
  | Found free-ion valence shell :  3 s   1.000
  | Found free-ion valence shell :  3 p   3.000
  | Found ionic basis function :  3 d , default cutoff radius.
  | Found hydrogenic basis function :  2 p   1.800
  | Found hydrogenic basis function :  4 f   7.000
  | Found ionic basis function :  3 s , default cutoff radius.
  | Found hydrogenic basis function :  4 d   6.200
  | Found hydrogenic basis function :  5 g  10.800
  Species S                   : Missing cutoff potential type.
  Defaulting to exp(1/x)/(1-x)^2 type cutoff potential.
  Species S : No 'logarithmic' tag. Using default grid for free atom:
  | Default logarithmic grid data [bohr] : 0.1000E-03 0.1000E+03 0.1012E+01
  | Will include ionic basis functions of  2.0-fold positive S                    ion.
  Species S : On-site basis accuracy parameter (for Gram-Schmidt orthonormalisation) not specified.
  Using default value basis_acc =  0.1000000E-03.
  Species S                   : Using default innermost maximum threshold i_radial=  2 for radial functions.
  Species S                   : Default cutoff onset for free atom density etc. : 0.40000000E+01 AA.
  Species S                   : Basic radial grid will be enhanced according to radial_multiplier =   2, to contain    89 grid points.
 
  Reading configuration options for species Mo                  .
  | Found nuclear charge :  42.0000
  | Found atomic mass :    95.9400000000000      amu
  | Found l_max for Hartree potential  :   6
  | Found cutoff potl. onset [A], width [A], scale factor :    4.00000    2.00000    1.00000
  | Threshold for basis-dependent cutoff potential is   0.100000E-03
  | Found data for basic radial integration grid :    59 points, outermost radius =    7.000 A
  | Found multiplier for basic radial grid :   2
  | Found angular grid specification: user-specified.
  | Specified grid contains     6 separate shells.
  | Check grid settings after all constraints further below.
  | Found free-atom valence shell :  5 s   1.000
  | Found free-atom valence shell :  4 p   6.000
  | Found free-atom valence shell :  4 d   5.000
  | Found free-ion valence shell :  5 s   0.000
  | Found free-ion valence shell :  4 p   6.000
  | Found free-ion valence shell :  4 d   4.000
  | Found hydrogenic basis function :  4 f   8.400
  | Found hydrogenic basis function :  3 d   2.800
  | Found ionic basis function :  5 p , default cutoff radius.
  | Found hydrogenic basis function :  5 g  12.000
  | Found ionic basis function :  5 s , default cutoff radius.
  Species Mo                  : Missing cutoff potential type.
  Defaulting to exp(1/x)/(1-x)^2 type cutoff potential.
  Species Mo: No 'logarithmic' tag. Using default grid for free atom:
  | Default logarithmic grid data [bohr] : 0.1000E-03 0.1000E+03 0.1012E+01
  | Will include ionic basis functions of  2.0-fold positive Mo                   ion.
  Species Mo: On-site basis accuracy parameter (for Gram-Schmidt orthonormalisation) not specified.
  Using default value basis_acc =  0.1000000E-03.
  Species Mo                  : Using default innermost maximum threshold i_radial=  2 for radial functions.
  Species Mo                  : Default cutoff onset for free atom density etc. : 0.40000000E+01 AA.
  Species Mo                  : Basic radial grid will be enhanced according to radial_multiplier =   2, to contain   119 grid points.
 
  Reading configuration options for species W                   .
  | Found nuclear charge :  74.0000
  | Found atomic mass :    183.840000000000      amu
  | Found l_max for Hartree potential  :   6
  | Found cutoff potl. onset [A], width [A], scale factor :    4.00000    2.00000    1.00000
  | Threshold for basis-dependent cutoff potential is   0.100000E-03
  | Found data for basic radial integration grid :    71 points, outermost radius =    7.000 A
  | Found multiplier for basic radial grid :   2
  | Found angular grid specification: user-specified.
  | Specified grid contains     6 separate shells.
  | Check grid settings after all constraints further below.
  | Found free-atom valence shell :  6 s   2.000
  | Found free-atom valence shell :  5 p   6.000
  | Found free-atom valence shell :  5 d   4.000
  | Found free-atom valence shell :  4 f  14.000
  | Found free-ion valence shell :  6 s   1.000
  | Found free-ion valence shell :  5 p   6.000
  | Found free-ion valence shell :  5 d   3.000
  | Found free-ion valence shell :  4 f  14.000
  | Found hydrogenic basis function :  4 f   7.800
  | Found hydrogenic basis function :  4 d   5.800
  | Found ionic basis function :  6 p , default cutoff radius.
  | Found hydrogenic basis function :  5 g  12.400
  | Found ionic basis function :  6 s , default cutoff radius.
  Species W                   : Missing cutoff potential type.
  Defaulting to exp(1/x)/(1-x)^2 type cutoff potential.
  Species W : No 'logarithmic' tag. Using default grid for free atom:
  | Default logarithmic grid data [bohr] : 0.1000E-03 0.1000E+03 0.1012E+01
  | Will include ionic basis functions of  2.0-fold positive W                    ion.
  Species W : On-site basis accuracy parameter (for Gram-Schmidt orthonormalisation) not specified.
  Using default value basis_acc =  0.1000000E-03.
  Species W                   : Using default innermost maximum threshold i_radial=  2 for radial functions.
  Species W                   : Default cutoff onset for free atom density etc. : 0.40000000E+01 AA.
  Species W                   : Basic radial grid will be enhanced according to radial_multiplier =   2, to contain   143 grid points.
 
  Reading configuration options for species Se                  .
  | Found nuclear charge :  34.0000
  | Found atomic mass :    78.9600000000000      amu
  | Found l_max for Hartree potential  :   6
  | Found cutoff potl. onset [A], width [A], scale factor :    4.00000    2.00000    1.00000
  | Threshold for basis-dependent cutoff potential is   0.100000E-03
  | Found data for basic radial integration grid :    55 points, outermost radius =    7.000 A
  | Found multiplier for basic radial grid :   2
  | Found angular grid specification: user-specified.
  | Specified grid contains     5 separate shells.
  | Check grid settings after all constraints further below.
  | Found free-atom valence shell :  4 s   2.000
  | Found free-atom valence shell :  4 p   4.000
  | Found free-atom valence shell :  3 d  10.000
  | Found free-ion valence shell :  4 s   1.000
  | Found free-ion valence shell :  4 p   3.000
  | Found free-ion valence shell :  3 d  10.000
  | Found hydrogenic basis function :  3 d   4.300
  | Found hydrogenic basis function :  2 p   1.600
  | Found hydrogenic basis function :  4 f   7.200
  | Found ionic basis function :  4 s , default cutoff radius.
  Species Se                  : Missing cutoff potential type.
  Defaulting to exp(1/x)/(1-x)^2 type cutoff potential.
  Species Se: No 'logarithmic' tag. Using default grid for free atom:
  | Default logarithmic grid data [bohr] : 0.1000E-03 0.1000E+03 0.1012E+01
  | Will include ionic basis functions of  2.0-fold positive Se                   ion.
  Species Se: On-site basis accuracy parameter (for Gram-Schmidt orthonormalisation) not specified.
  Using default value basis_acc =  0.1000000E-03.
  Species Se                  : Using default innermost maximum threshold i_radial=  2 for radial functions.
  Species Se                  : Default cutoff onset for free atom density etc. : 0.40000000E+01 AA.
  Species Se                  : Basic radial grid will be enhanced according to radial_multiplier =   2, to contain   111 grid points.
 
  Finished reading input file 'control.in'.
 
------------------------------------------------------------


------------------------------------------------------------
          Reading geometry description geometry.in.
------------------------------------------------------------
  Vacuum level in z-axis :   0.525222E+02
  | The smallest distance between any two atoms is         2.38805422 AA.
  | The first atom of this pair is atom number                     23 .
  | The second atom of this pair is atom number                    22 .
  | Wigner-Seitz cell of the first atom image           0     1     0 .
  | (The Wigner-Seitz cell of the second atom is 0 0 0  by definition.)

  Symmetry information by spglib:
  | Precision set to  0.1E-04
  | Number of Operations  : 1
  | Space group           : 1
  | International         : P1  6879742
  | Schoenflies           : C1^1
  Input structure read successfully.
  The structure contains       74 atoms,  and a total of       2634.000 electrons.

  Input geometry:
  | Unit cell:
  |       15.80931190        0.00000000        0.00000000
  |       -7.90633915       13.69010115        0.00000000
  |        0.00000000        0.00000000       99.93885963
  | Atomic structure:
  |       Atom                x [A]            y [A]            z [A]
  |    1: Species W             0.02515930        0.96147284        2.60969857
  |    2: Species S             1.60596927        1.90241451        4.16913911
  |    3: Species S             1.60596690        1.86448861        1.02375654
  |    4: Species W            -1.54603420        3.70792200        2.60895065
  |    5: Species S             0.07408067        4.68804610        4.14114528
  |    6: Species S             0.00984418        4.61956669        0.98989309
  |    7: Species W            -3.11804841        6.42998874        2.60892289
  |    8: Species S            -1.45916091        7.34287559        4.14112266
  |    9: Species S            -1.55049736        7.32146120        0.98985985
  |   10: Species W            -4.71165474        9.16349791        2.60967465
  |   11: Species S            -3.10629114       10.06190789        4.16912848
  |   12: Species S            -3.13914415       10.08087039        1.02371911
  |   13: Species W            -6.29996739       11.90549268        2.60995962
  |   14: Species S            -4.71653308       12.81958973        4.18405669
  |   15: Species S            -4.71596120       12.81992931        1.03620335
  |   16: Species W             3.18691177        0.96146363        2.60968980
  |   17: Species S             4.75513387        1.88230513        4.19261448
  |   18: Species S             4.77475955        1.87089089        1.04175438
  |   19: Species W             1.60569252        3.72351983        2.56892434
  |   20: Species S             3.13719002        4.68797424        4.14114091
  |   21: Species S             3.20138825        4.61957098        0.98992025
  |   22: Species W             0.09105621        6.46790960        2.51729315
  |   23: Species S             1.60530895        7.34204168        0.89072170
  |   24: Species W            -1.52899972        9.15140933        2.56887302
  |   25: Species S             0.07208349        9.99540160        4.14108463
  |   26: Species S             0.04491017       10.08519043        0.98984842
  |   27: Species W            -3.13110730       11.90138510        2.60967972
  |   28: Species S            -1.54948760       12.79899689        4.19260091
  |   29: Species S            -1.54959064       12.82171593        1.04173943
  |   30: Species W             6.34731712        0.95251422        2.62699487
  |   31: Species S             7.92527089        1.86349827        4.20867972
  |   32: Species S             7.93180459        1.86728045        1.05694298
  |   33: Species W             4.75746057        3.70791126        2.60894455
  |   34: Species S             6.32972864        4.61488270        4.19661412
  |   35: Species S             6.35344758        4.60118011        1.04423814
  |   36: Species W             3.11965149        6.46789708        2.51732491
  |   37: Species S             4.66975420        7.34287332        4.14113286
  |   38: Species S             4.76109286        7.32147171        0.98990539
  |   39: Species W             1.60504231        9.09053798        2.51724490
  |   40: Species S             3.13781301        9.99534219        4.14110176
  |   41: Species S             3.16501372       10.08520788        0.98985880
  |   42: Species W             0.03301322       11.88848433        2.60890500
  |   43: Species S             1.60461427       12.79654874        4.19659853
  |   44: Species S             1.60463128       12.82394770        1.04421920
  |   45: Species W             9.51069799        0.94957802        2.63235051
  |   46: Species S            11.09598425        1.86349519        4.20869341
  |   47: Species S            11.08946290        1.86727486        1.05694272
  |   48: Species W             7.92613246        3.69335137        2.63235746
  |   49: Species S             9.51028639        4.60919285        4.20868300
  |   50: Species S             9.51029269        4.60163275        1.05694676
  |   51: Species W             6.32880858        6.42997118        2.60894077
  |   52: Species S             7.90858039        7.34497573        4.19261187
  |   53: Species S             7.92827800        7.33368795        1.04174557
  |   54: Species W             4.73906585        9.15142402        2.56890192
  |   55: Species S             6.31622615       10.06192044        4.16913780
  |   56: Species S             6.34907217       10.08089151        1.02372890
  |   57: Species W             3.17636946       11.88848470        2.60892376
  |   58: Species S             4.75872860       12.79899417        4.19262289
  |   59: Species S             4.75882512       12.82172305        1.04174662
  |   60: Species W            12.67408216        0.95251993        2.62701161
  |   61: Species S            14.26612022        1.88232914        4.19262203
  |   62: Species S            14.24648140        1.87089610        1.04176719
  |   63: Species W            11.09457343        3.69332875        2.63236386
  |   64: Species S            12.69084259        4.61488709        4.19660426
  |   65: Species S            12.66711926        4.60116116        1.04425005
  |   66: Species W             9.51003074        6.43121721        2.62698870
  |   67: Species S            11.11132889        7.34497709        4.19259386
  |   68: Species S            11.09162280        7.33368658        1.04174766
  |   69: Species W             7.92172320        9.16350541        2.60967999
  |   70: Species S             9.50960523       10.07715627        4.18407860
  |   71: Species S             9.50960012       10.07649510        1.03618019
  |   72: Species W             6.34049282       11.90140505        2.60968655
  |   73: Species S             7.92575619       12.81960446        4.18407804
  |   74: Species S             7.92517683       12.81994367        1.03619209

  Lattice parameters for 3D lattice (in Angstroms) :    15.809312   15.809145   99.938860
  Angle(s) between unit vectors (in degrees)       :    90.000000   90.000000  120.007393


  Quantities derived from the lattice vectors:
  | Reciprocal lattice vector 1:  0.397436  0.229528  0.000000
  | Reciprocal lattice vector 2: -0.000000  0.458958  0.000000
  | Reciprocal lattice vector 3:  0.000000  0.000000  0.062870
  | Unit cell volume                               :   0.216299E+05  A^3

  Fractional coordinates:
                         L1                L2                L3
       atom_frac         0.03671452        0.07023124        0.02611295  W
       atom_frac         0.17107994        0.13896278        0.04171690  S
       atom_frac         0.16969434        0.13619246        0.01024383  S
       atom_frac         0.03765968        0.27084694        0.02610547  W
       atom_frac         0.17594263        0.34244057        0.04143679  S
       atom_frac         0.16937784        0.33743846        0.00990499  S
       atom_frac         0.03766221        0.46968161        0.02610519  W
       atom_frac         0.17594148        0.53636387        0.04143656  S
       atom_frac         0.16938182        0.53479964        0.00990465  S
       atom_frac         0.03671696        0.66935210        0.02611271  W
       atom_frac         0.17108179        0.73497688        0.04171679  S
       atom_frac         0.16969642        0.73636201        0.01024345  S
       atom_frac         0.03641654        0.86964242        0.02611556  W
       atom_frac         0.16996731        0.93641308        0.04186616  S
       atom_frac         0.17001589        0.93643788        0.01036837  S
       atom_frac         0.23670723        0.07023057        0.02611286  W
       atom_frac         0.36954215        0.13749388        0.04195179  S
       atom_frac         0.37036658        0.13666012        0.01042392  S
       atom_frac         0.23758835        0.27198629        0.02570496  W
       atom_frac         0.36969350        0.34243533        0.04143674  S
       atom_frac         0.37125548        0.33743878        0.00990526  S
       atom_frac         0.24203574        0.47245156        0.02518833  W
       atom_frac         0.36975056        0.53630295        0.00891267  S
       atom_frac         0.23759058        0.66846908        0.02570445  W
       atom_frac         0.36969674        0.73011890        0.04143618  S
       atom_frac         0.37125796        0.73667757        0.00990454  S
       atom_frac         0.23670912        0.86934238        0.02611276  W
       atom_frac         0.36954290        0.93490886        0.04195166  S
       atom_frac         0.37036632        0.93656839        0.01042377  S
       atom_frac         0.43628814        0.06957686        0.02628602  W
       atom_frac         0.56937853        0.13612012        0.04211254  S
       atom_frac         0.56992998        0.13639640        0.01057590  S
       atom_frac         0.43637966        0.27084616        0.02610541  W
       atom_frac         0.56896382        0.33709632        0.04199182  S
       atom_frac         0.56996357        0.33609541        0.01044877  S
       atom_frac         0.43360562        0.47245064        0.02518865  W
       atom_frac         0.56361893        0.53636370        0.04143666  S
       atom_frac         0.56861465        0.53480041        0.00990511  S
       atom_frac         0.43360717        0.66402270        0.02518785  W
       atom_frac         0.56361380        0.73011456        0.04143635  S
       atom_frac         0.56861719        0.73667884        0.00990464  S
       atom_frac         0.43638069        0.86840004        0.02610501  W
       atom_frac         0.56896258        0.93473004        0.04199166  S
       atom_frac         0.56996456        0.93673141        0.01044858  S
       atom_frac         0.63627693        0.06936238        0.02633961  W
       atom_frac         0.76993828        0.13611990        0.04211268  S
       atom_frac         0.76966385        0.13639599        0.01057589  S
       atom_frac         0.63627851        0.26978262        0.02633968  W
       atom_frac         0.76993852        0.33668070        0.04211258  S
       atom_frac         0.76966274        0.33612847        0.01057593  S
       atom_frac         0.63521174        0.46968033        0.02610537  W
       atom_frac         0.76856399        0.53651727        0.04195177  S
       atom_frac         0.76939760        0.53569275        0.01042383  S
       atom_frac         0.63407046        0.66847015        0.02570474  W
       atom_frac         0.76709284        0.73497780        0.04171688  S
       atom_frac         0.76986350        0.73636355        0.01024355  S
       atom_frac         0.63521012        0.86840006        0.02610520  W
       atom_frac         0.76856182        0.93490866        0.04195188  S
       atom_frac         0.76939823        0.93656891        0.01042384  S
       atom_frac         0.83648066        0.06957727        0.02628619  W
       atom_frac         0.97114963        0.13749563        0.04195187  S
       atom_frac         0.96948974        0.13666050        0.01042405  S
       atom_frac         0.83669380        0.26978097        0.02633974  W
       atom_frac         0.97132899        0.33709664        0.04199172  S
       atom_frac         0.96932698        0.33609402        0.01044889  S
       atom_frac         0.83648184        0.46977134        0.02628596  W
       atom_frac         0.97115025        0.53651737        0.04195159  S
       atom_frac         0.96949131        0.53569265        0.01042385  S
       atom_frac         0.83582716        0.66935264        0.02611277  W
       atom_frac         0.96964296        0.73609071        0.04186638  S
       atom_frac         0.96961849        0.73604241        0.01036814  S
       atom_frac         0.83582512        0.86934384        0.02611283  W
       atom_frac         0.96964145        0.93641415        0.04186638  S
       atom_frac         0.96961719        0.93643893        0.01036826  S

  Initial moments and charges:
  |  Atom   Moment         Charge        Species
  |     1   0.100000E+01   0.000000E+00   W
  |     2   0.100000E+01   0.000000E+00   S
  |     3   0.100000E+01   0.000000E+00   S
  |     4   0.100000E+01   0.000000E+00   W
  |     5   0.100000E+01   0.000000E+00   S
  |     6   0.100000E+01   0.000000E+00   S
  |     7   0.100000E+01   0.000000E+00   W
  |     8   0.100000E+01   0.000000E+00   S
  |     9   0.100000E+01   0.000000E+00   S
  |    10   0.100000E+01   0.000000E+00   W
  |    11   0.100000E+01   0.000000E+00   S
  |    12   0.100000E+01   0.000000E+00   S
  |    13   0.100000E+01   0.000000E+00   W
  |    14   0.100000E+01   0.000000E+00   S
  |    15   0.100000E+01   0.000000E+00   S
  |    16   0.100000E+01   0.000000E+00   W
  |    17   0.100000E+01   0.000000E+00   S
  |    18   0.100000E+01   0.000000E+00   S
  |    19   0.100000E+01   0.000000E+00   W
  |    20   0.100000E+01   0.000000E+00   S
  |    21   0.100000E+01   0.000000E+00   S
  |    22   0.100000E+01   0.000000E+00   W
  |    23   0.100000E+01   0.000000E+00   S
  |    24   0.100000E+01   0.000000E+00   W
  |    25   0.100000E+01   0.000000E+00   S
  |    26   0.100000E+01   0.000000E+00   S
  |    27   0.100000E+01   0.000000E+00   W
  |    28   0.100000E+01   0.000000E+00   S
  |    29   0.100000E+01   0.000000E+00   S
  |    30   0.100000E+01   0.000000E+00   W
  |    31   0.100000E+01   0.000000E+00   S
  |    32   0.100000E+01   0.000000E+00   S
  |    33   0.100000E+01   0.000000E+00   W
  |    34   0.100000E+01   0.000000E+00   S
  |    35   0.100000E+01   0.000000E+00   S
  |    36   0.100000E+01   0.000000E+00   W
  |    37   0.100000E+01   0.000000E+00   S
  |    38   0.100000E+01   0.000000E+00   S
  |    39   0.100000E+01   0.000000E+00   W
  |    40   0.100000E+01   0.000000E+00   S
  |    41   0.100000E+01   0.000000E+00   S
  |    42   0.100000E+01   0.000000E+00   W
  |    43   0.100000E+01   0.000000E+00   S
  |    44   0.100000E+01   0.000000E+00   S
  |    45   0.100000E+01   0.000000E+00   W
  |    46   0.100000E+01   0.000000E+00   S
  |    47   0.100000E+01   0.000000E+00   S
  |    48   0.100000E+01   0.000000E+00   W
  |    49   0.100000E+01   0.000000E+00   S
  |    50   0.100000E+01   0.000000E+00   S
  |    51   0.100000E+01   0.000000E+00   W
  |    52   0.100000E+01   0.000000E+00   S
  |    53   0.100000E+01   0.000000E+00   S
  |    54   0.100000E+01   0.000000E+00   W
  |    55   0.100000E+01   0.000000E+00   S
  |    56   0.100000E+01   0.000000E+00   S
  |    57   0.100000E+01   0.000000E+00   W
  |    58   0.100000E+01   0.000000E+00   S
  |    59   0.100000E+01   0.000000E+00   S
  |    60   0.100000E+01   0.000000E+00   W
  |    61   0.100000E+01   0.000000E+00   S
  |    62   0.100000E+01   0.000000E+00   S
  |    63   0.100000E+01   0.000000E+00   W
  |    64   0.100000E+01   0.000000E+00   S
  |    65   0.100000E+01   0.000000E+00   S
  |    66   0.100000E+01   0.000000E+00   W
  |    67   0.100000E+01   0.000000E+00   S
  |    68   0.100000E+01   0.000000E+00   S
  |    69   0.100000E+01   0.000000E+00   W
  |    70   0.100000E+01   0.000000E+00   S
  |    71   0.100000E+01   0.000000E+00   S
  |    72   0.100000E+01   0.000000E+00   W
  |    73   0.100000E+01   0.000000E+00   S
  |    74   0.100000E+01   0.000000E+00   S

 
  Finished reading input file 'control.in'.
 

------------------------------------------------------------
          Reading geometry description geometry.in.
------------------------------------------------------------
 
  Consistency checks for stacksize environment parameter are next.
 
  | Maximum stacksize for task 0: unlimited
  | Maximum stacksize for task 1: unlimited
  | Maximum stacksize for task 2: unlimited
  | Maximum stacksize for task 3: unlimited
  | Maximum stacksize for task 4: unlimited
  | Maximum stacksize for task 5: unlimited
  | Maximum stacksize for task 6: unlimited
  | Maximum stacksize for task 7: unlimited
  | Maximum stacksize for task 8: unlimited
  | Maximum stacksize for task 9: unlimited
  | Maximum stacksize for task 10: unlimited
  | Maximum stacksize for task 11: unlimited
  | Maximum stacksize for task 12: unlimited
  | Maximum stacksize for task 13: unlimited
  | Maximum stacksize for task 14: unlimited
  | Maximum stacksize for task 15: unlimited
  | Maximum stacksize for task 16: unlimited
  | Maximum stacksize for task 17: unlimited
  | Maximum stacksize for task 18: unlimited
  | Maximum stacksize for task 19: unlimited
  | Maximum stacksize for task 20: unlimited
  | Maximum stacksize for task 21: unlimited
  | Maximum stacksize for task 22: unlimited
  | Maximum stacksize for task 23: unlimited
  | Maximum stacksize for task 24: unlimited
  | Maximum stacksize for task 25: unlimited
  | Maximum stacksize for task 26: unlimited
  | Maximum stacksize for task 27: unlimited
  | Maximum stacksize for task 28: unlimited
  | Maximum stacksize for task 29: unlimited
  | Maximum stacksize for task 30: unlimited
  | Maximum stacksize for task 31: unlimited
  | Maximum stacksize for task 32: unlimited
  | Maximum stacksize for task 33: unlimited
  | Maximum stacksize for task 34: unlimited
  | Maximum stacksize for task 35: unlimited
  | Maximum stacksize for task 36: unlimited
  | Maximum stacksize for task 37: unlimited
  | Maximum stacksize for task 38: unlimited
  | Maximum stacksize for task 39: unlimited
  | Maximum stacksize for task 40: unlimited
  | Maximum stacksize for task 41: unlimited
  | Maximum stacksize for task 42: unlimited
  | Maximum stacksize for task 43: unlimited
  | Maximum stacksize for task 44: unlimited
  | Maximum stacksize for task 45: unlimited
  | Maximum stacksize for task 46: unlimited
  | Maximum stacksize for task 47: unlimited
  | Maximum stacksize for task 48: unlimited
  | Maximum stacksize for task 49: unlimited
  | Maximum stacksize for task 50: unlimited
  | Maximum stacksize for task 51: unlimited
  | Maximum stacksize for task 52: unlimited
  | Maximum stacksize for task 53: unlimited
  | Maximum stacksize for task 54: unlimited
  | Maximum stacksize for task 55: unlimited
  | Maximum stacksize for task 56: unlimited
  | Maximum stacksize for task 57: unlimited
  | Maximum stacksize for task 58: unlimited
  | Maximum stacksize for task 59: unlimited
  | Maximum stacksize for task 60: unlimited
  | Maximum stacksize for task 61: unlimited
  | Maximum stacksize for task 62: unlimited
  | Maximum stacksize for task 63: unlimited
  | Maximum stacksize for task 64: unlimited
  | Maximum stacksize for task 65: unlimited
  | Maximum stacksize for task 66: unlimited
  | Maximum stacksize for task 67: unlimited
  | Maximum stacksize for task 68: unlimited
  | Maximum stacksize for task 69: unlimited
  | Maximum stacksize for task 70: unlimited
  | Maximum stacksize for task 71: unlimited
  | Maximum stacksize for task 72: unlimited
  | Maximum stacksize for task 73: unlimited
  | Maximum stacksize for task 74: unlimited
  | Maximum stacksize for task 75: unlimited
  | Maximum stacksize for task 76: unlimited
  | Maximum stacksize for task 77: unlimited
  | Maximum stacksize for task 78: unlimited
  | Maximum stacksize for task 79: unlimited
  | Maximum stacksize for task 80: unlimited
  | Maximum stacksize for task 81: unlimited
  | Maximum stacksize for task 82: unlimited
  | Maximum stacksize for task 83: unlimited
  | Maximum stacksize for task 84: unlimited
  | Maximum stacksize for task 85: unlimited
  | Maximum stacksize for task 86: unlimited
  | Maximum stacksize for task 87: unlimited
  | Maximum stacksize for task 88: unlimited
  | Maximum stacksize for task 89: unlimited
  | Maximum stacksize for task 90: unlimited
  | Maximum stacksize for task 91: unlimited
  | Maximum stacksize for task 92: unlimited
  | Maximum stacksize for task 93: unlimited
  | Maximum stacksize for task 94: unlimited
  | Maximum stacksize for task 95: unlimited
  | Maximum stacksize for task 96: unlimited
  | Maximum stacksize for task 97: unlimited
  | Maximum stacksize for task 98: unlimited
  | Maximum stacksize for task 99: unlimited
  | Maximum stacksize for task 100: unlimited
  | Maximum stacksize for task 101: unlimited
  | Maximum stacksize for task 102: unlimited
  | Maximum stacksize for task 103: unlimited
  | Maximum stacksize for task 104: unlimited
  | Maximum stacksize for task 105: unlimited
  | Maximum stacksize for task 106: unlimited
  | Maximum stacksize for task 107: unlimited
  | Maximum stacksize for task 108: unlimited
  | Maximum stacksize for task 109: unlimited
  | Maximum stacksize for task 110: unlimited
  | Maximum stacksize for task 111: unlimited
  | Maximum stacksize for task 112: unlimited
  | Maximum stacksize for task 113: unlimited
  | Maximum stacksize for task 114: unlimited
  | Maximum stacksize for task 115: unlimited
  | Maximum stacksize for task 116: unlimited
  | Maximum stacksize for task 117: unlimited
  | Maximum stacksize for task 118: unlimited
  | Maximum stacksize for task 119: unlimited
  | Maximum stacksize for task 120: unlimited
  | Maximum stacksize for task 121: unlimited
  | Maximum stacksize for task 122: unlimited
  | Maximum stacksize for task 123: unlimited
  | Maximum stacksize for task 124: unlimited
  | Maximum stacksize for task 125: unlimited
  | Maximum stacksize for task 126: unlimited
  | Maximum stacksize for task 127: unlimited
  | Maximum stacksize for task 128: unlimited
  | Maximum stacksize for task 129: unlimited
  | Maximum stacksize for task 130: unlimited
  | Maximum stacksize for task 131: unlimited
  | Maximum stacksize for task 132: unlimited
  | Maximum stacksize for task 133: unlimited
  | Maximum stacksize for task 134: unlimited
  | Maximum stacksize for task 135: unlimited
  | Maximum stacksize for task 136: unlimited
  | Maximum stacksize for task 137: unlimited
  | Maximum stacksize for task 138: unlimited
  | Maximum stacksize for task 139: unlimited
  | Maximum stacksize for task 140: unlimited
  | Maximum stacksize for task 141: unlimited
  | Maximum stacksize for task 142: unlimited
  | Maximum stacksize for task 143: unlimited
  | Maximum stacksize for task 144: unlimited
  | Maximum stacksize for task 145: unlimited
  | Maximum stacksize for task 146: unlimited
  | Maximum stacksize for task 147: unlimited
  | Maximum stacksize for task 148: unlimited
  | Maximum stacksize for task 149: unlimited
  | Maximum stacksize for task 150: unlimited
  | Maximum stacksize for task 151: unlimited
  | Maximum stacksize for task 152: unlimited
  | Maximum stacksize for task 153: unlimited
  | Maximum stacksize for task 154: unlimited
  | Maximum stacksize for task 155: unlimited
  | Maximum stacksize for task 156: unlimited
  | Maximum stacksize for task 157: unlimited
  | Maximum stacksize for task 158: unlimited
  | Maximum stacksize for task 159: unlimited
  | Current stacksize for task 0: unlimited
  | Current stacksize for task 1: unlimited
  | Current stacksize for task 2: unlimited
  | Current stacksize for task 3: unlimited
  | Current stacksize for task 4: unlimited
  | Current stacksize for task 5: unlimited
  | Current stacksize for task 6: unlimited
  | Current stacksize for task 7: unlimited
  | Current stacksize for task 8: unlimited
  | Current stacksize for task 9: unlimited
  | Current stacksize for task 10: unlimited
  | Current stacksize for task 11: unlimited
  | Current stacksize for task 12: unlimited
  | Current stacksize for task 13: unlimited
  | Current stacksize for task 14: unlimited
  | Current stacksize for task 15: unlimited
  | Current stacksize for task 16: unlimited
  | Current stacksize for task 17: unlimited
  | Current stacksize for task 18: unlimited
  | Current stacksize for task 19: unlimited
  | Current stacksize for task 20: unlimited
  | Current stacksize for task 21: unlimited
  | Current stacksize for task 22: unlimited
  | Current stacksize for task 23: unlimited
  | Current stacksize for task 24: unlimited
  | Current stacksize for task 25: unlimited
  | Current stacksize for task 26: unlimited
  | Current stacksize for task 27: unlimited
  | Current stacksize for task 28: unlimited
  | Current stacksize for task 29: unlimited
  | Current stacksize for task 30: unlimited
  | Current stacksize for task 31: unlimited
  | Current stacksize for task 32: unlimited
  | Current stacksize for task 33: unlimited
  | Current stacksize for task 34: unlimited
  | Current stacksize for task 35: unlimited
  | Current stacksize for task 36: unlimited
  | Current stacksize for task 37: unlimited
  | Current stacksize for task 38: unlimited
  | Current stacksize for task 39: unlimited
  | Current stacksize for task 40: unlimited
  | Current stacksize for task 41: unlimited
  | Current stacksize for task 42: unlimited
  | Current stacksize for task 43: unlimited
  | Current stacksize for task 44: unlimited
  | Current stacksize for task 45: unlimited
  | Current stacksize for task 46: unlimited
  | Current stacksize for task 47: unlimited
  | Current stacksize for task 48: unlimited
  | Current stacksize for task 49: unlimited
  | Current stacksize for task 50: unlimited
  | Current stacksize for task 51: unlimited
  | Current stacksize for task 52: unlimited
  | Current stacksize for task 53: unlimited
  | Current stacksize for task 54: unlimited
  | Current stacksize for task 55: unlimited
  | Current stacksize for task 56: unlimited
  | Current stacksize for task 57: unlimited
  | Current stacksize for task 58: unlimited
  | Current stacksize for task 59: unlimited
  | Current stacksize for task 60: unlimited
  | Current stacksize for task 61: unlimited
  | Current stacksize for task 62: unlimited
  | Current stacksize for task 63: unlimited
  | Current stacksize for task 64: unlimited
  | Current stacksize for task 65: unlimited
  | Current stacksize for task 66: unlimited
  | Current stacksize for task 67: unlimited
  | Current stacksize for task 68: unlimited
  | Current stacksize for task 69: unlimited
  | Current stacksize for task 70: unlimited
  | Current stacksize for task 71: unlimited
  | Current stacksize for task 72: unlimited
  | Current stacksize for task 73: unlimited
  | Current stacksize for task 74: unlimited
  | Current stacksize for task 75: unlimited
  | Current stacksize for task 76: unlimited
  | Current stacksize for task 77: unlimited
  | Current stacksize for task 78: unlimited
  | Current stacksize for task 79: unlimited
  | Current stacksize for task 80: unlimited
  | Current stacksize for task 81: unlimited
  | Current stacksize for task 82: unlimited
  | Current stacksize for task 83: unlimited
  | Current stacksize for task 84: unlimited
  | Current stacksize for task 85: unlimited
  | Current stacksize for task 86: unlimited
  | Current stacksize for task 87: unlimited
  | Current stacksize for task 88: unlimited
  | Current stacksize for task 89: unlimited
  | Current stacksize for task 90: unlimited
  | Current stacksize for task 91: unlimited
  | Current stacksize for task 92: unlimited
  | Current stacksize for task 93: unlimited
  | Current stacksize for task 94: unlimited
  | Current stacksize for task 95: unlimited
  | Current stacksize for task 96: unlimited
  | Current stacksize for task 97: unlimited
  | Current stacksize for task 98: unlimited
  | Current stacksize for task 99: unlimited
  | Current stacksize for task 100: unlimited
  | Current stacksize for task 101: unlimited
  | Current stacksize for task 102: unlimited
  | Current stacksize for task 103: unlimited
  | Current stacksize for task 104: unlimited
  | Current stacksize for task 105: unlimited
  | Current stacksize for task 106: unlimited
  | Current stacksize for task 107: unlimited
  | Current stacksize for task 108: unlimited
  | Current stacksize for task 109: unlimited
  | Current stacksize for task 110: unlimited
  | Current stacksize for task 111: unlimited
  | Current stacksize for task 112: unlimited
  | Current stacksize for task 113: unlimited
  | Current stacksize for task 114: unlimited
  | Current stacksize for task 115: unlimited
  | Current stacksize for task 116: unlimited
  | Current stacksize for task 117: unlimited
  | Current stacksize for task 118: unlimited
  | Current stacksize for task 119: unlimited
  | Current stacksize for task 120: unlimited
  | Current stacksize for task 121: unlimited
  | Current stacksize for task 122: unlimited
  | Current stacksize for task 123: unlimited
  | Current stacksize for task 124: unlimited
  | Current stacksize for task 125: unlimited
  | Current stacksize for task 126: unlimited
  | Current stacksize for task 127: unlimited
  | Current stacksize for task 128: unlimited
  | Current stacksize for task 129: unlimited
  | Current stacksize for task 130: unlimited
  | Current stacksize for task 131: unlimited
  | Current stacksize for task 132: unlimited
  | Current stacksize for task 133: unlimited
  | Current stacksize for task 134: unlimited
  | Current stacksize for task 135: unlimited
  | Current stacksize for task 136: unlimited
  | Current stacksize for task 137: unlimited
  | Current stacksize for task 138: unlimited
  | Current stacksize for task 139: unlimited
  | Current stacksize for task 140: unlimited
  | Current stacksize for task 141: unlimited
  | Current stacksize for task 142: unlimited
  | Current stacksize for task 143: unlimited
  | Current stacksize for task 144: unlimited
  | Current stacksize for task 145: unlimited
  | Current stacksize for task 146: unlimited
  | Current stacksize for task 147: unlimited
  | Current stacksize for task 148: unlimited
  | Current stacksize for task 149: unlimited
  | Current stacksize for task 150: unlimited
  | Current stacksize for task 151: unlimited
  | Current stacksize for task 152: unlimited
  | Current stacksize for task 153: unlimited
  | Current stacksize for task 154: unlimited
  | Current stacksize for task 155: unlimited
  | Current stacksize for task 156: unlimited
  | Current stacksize for task 157: unlimited
  | Current stacksize for task 158: unlimited
  | Current stacksize for task 159: unlimited
 
  Consistency checks for the contents of control.in are next.
 
  MPI_IN_PLACE appears to work with this MPI implementation.
  | Keeping use_mpi_in_place .true. (see manual).
  Target number of points in a grid batch is not set. Defaulting to  100
  Method for grid partitioning is not set. Defaulting to parallel hash+maxmin partitioning.
  Batch size limit is not set. Defaulting to    200
  By default, will store active basis functions for each batch.
  If in need of memory, prune_basis_once .false. can be used to disable this option.
  communication_type for Hartree potential was not specified.
  Defaulting to calc_hartree .
  Defaulting to Pulay charge density mixer.
  Pulay mixer: Number of relevant iterations not set.
  Defaulting to    8 iterations.
  Pulay mixer: Number of initial linear mixing iterations not set.
  Defaulting to    0 iterations.
  Work space size for distributed Hartree potential not set.
  Defaulting to   0.200000E+03 MB.
  Mixing parameter for charge density mixing has not been set.
  Using default: charge_mix_param =     0.0500.
  The mixing parameter will be adjusted in iteration number     2 of the first full s.c.f. cycle only.
  Mixing parameter for spin density mixing has not been set.
  Using charge_mix_param as default:     0.0500.
  Algorithm-dependent basis array size parameters:
  | n_max_pulay                         :        8
  Maximum number of self-consistency iterations not provided.
  Presetting  1000 iterations.
  Presetting      1001 iterations before the initial mixing cycle
  is restarted anyway using the sc_init_iter criterion / keyword.
  Presetting a factor      1.000 between actual scf density residual
  and density convergence criterion sc_accuracy_rho below which sc_init_iter
  takes no effect.
 * No s.c.f. convergence criteria (sc_accuracy_*) were provided in control.in.
 * The run will proceed with a reasonable default guess, but please check whether.
 * the s.c.f. cycles seem to take too much or too little time.
  Calculation of forces was not defined in control.in. No forces will be calculated.
  Geometry relaxation not requested: no relaxation will be performed.
 * Notice: The s.c.f. convergence criterion sc_accuracy_rho was not provided.
 * We used to stop in this case, and ask the user to provide reasonable
 * scf convergence criteria. However, this led some users to employ criteria
 * that led to extremely long run times, e.g., for simple relaxation.
 * We now preset a default value for sc_accuracy_rho if it is not set.
 * You may still wish to check if this setting is too tight or too loose for your needs.
 * Based on n_atoms and forces and force-correction status, FHI-aims chose sc_accuracy_rho =  0.351188E-05 .
  No accuracy limit for integral partition fn. given. Defaulting to  0.1000E-14.
  No threshold value for u(r) in integrations given. Defaulting to  0.1000E-05.
  No accuracy for occupation numbers given. Defaulting to  0.1000E-12.
  No threshold value for occupation numbers given. Defaulting to  0.0000E+00.
  No accuracy for fermi level given. Defaulting to  0.1000E-19.
  Maximum # of iterations to find E_F not set. Defaulting to  200.
  Preferred method for the eigenvalue solver ('KS_method') not specified in 'control.in'.
  Calling BLACS routine to test compilation state
  Since ScaLAPACK support is enabled, defaulting to ELPA (via ELSI).
  Will not use alltoall communication since running on < 1024 CPUs.
  Threshold for basis singularities not set.
  Default threshold for basis singularities:  0.1000E-04
  partition_type (choice of integration weights) for integrals was not specified.
  | Using a version of the partition function of Stratmann and coworkers ('stratmann_sparse').
  | At each grid point, the set of atoms used to build the partition table is smoothly restricted to
  | only those atoms whose free-atom density would be non-zero at that grid point.
  Partitioning for Hartree potential was not defined. Using partition_type for integrals.
  | Adjusted default value of keyword multip_moments_threshold to:       0.10000000E-11
  | This value may affect high angular momentum components of the Hartree potential in periodic systems.
  Angular momentum expansion for Kerker preconditioner not set explicitly.
  | Using default value of   0
  No explicit requirement for turning off preconditioner.
  | By default, it will be turned off when the charge convergence reaches
  | sc_accuracy_rho  =   0.351188E-05
  No special mixing parameter while Kerker preconditioner is on.
  Using default: charge_mix_param =     0.0500.
  No q(lm)/r^(l+1) cutoff set for long-range Hartree potential.
  | Using default value of  0.100000E-09 .
  | Verify using the multipole_threshold keyword.
  Defaulting to new monopole extrapolation.
  Density update method: automatic selection selected.
  Using density matrix based charge density update.
  Using density matrix based charge density update.
  Using packed matrix style: index .
  Defaulting to use full k-point grid (no symmetry reduction).
  Charge integration errors on the 3D integration grid will be compensated
  by explicit normalization and distribution of residual charges.
  Use the "compensate_multipole_errors" flag to change this behaviour.
 
  Consistency checks for the contents of geometry.in are next.
 

  Range separation radius for Ewald summation (hartree_convergence_parameter):      5.00000000 bohr.
  Structure-dependent array size parameters: 
  | Number of distinct atom types in initial rho :        2
  | Maximum number of distinct radial functions  :       57
  | Maximum number of basis functions            :     3536
  | Number of Kohn-Sham states (occupied + empty):     1613
------------------------------------------------------------

------------------------------------------------------------
          Preparing all fixed parts of the calculation.
------------------------------------------------------------
  Determining machine precision:
    2.225073858507201E-308
  Setting up grids for atomic and cluster calculations.

  Creating wave function, potential, and density for free atoms.

  Species: S

  List of occupied orbitals and eigenvalues:
    n    l              occ      energy [Ha]    energy [eV]
    1    0           2.0000       -88.680731     -2413.1255
    2    0           2.0000        -7.781719      -211.7513
    3    0           2.0000        -0.633662       -17.2428
    2    1           6.0000        -5.751976      -156.5192
    3    1           4.0000        -0.257086        -6.9957


  Species: Mo

  List of occupied orbitals and eigenvalues:
    n    l              occ      energy [Ha]    energy [eV]
    1    0           2.0000      -745.344654    -20281.8600
    2    0           2.0000      -103.288246     -2810.6162
    3    0           2.0000       -17.516687      -476.6533
    4    0           2.0000        -2.358559       -64.1796
    5    0           1.0000        -0.145159        -3.9500
    2    1           6.0000       -92.308627     -2511.8455
    3    1           6.0000       -13.936005      -379.2180
    4    1           6.0000        -1.408138       -38.3174
    3    2          10.0000        -8.119011      -220.9295
    4    2           5.0000        -0.132984        -3.6187


  Species: W

  List of occupied orbitals and eigenvalues:
    n    l              occ      energy [Ha]    energy [eV]
    1    0           2.0000     -2764.899999    -75236.7570
    2    0           2.0000      -447.822848    -12185.8797
    3    0           2.0000      -101.923634     -2773.4832
    4    0           2.0000       -20.945301      -569.9506
    5    0           2.0000        -2.899582       -78.9016
    6    0           2.0000        -0.207066        -5.6345
    2    1           6.0000      -391.021390    -10640.2334
    3    1           6.0000       -85.417793     -2324.3364
    4    1           6.0000       -15.562838      -423.4864
    5    1           6.0000        -1.582233       -43.0547
    3    2          10.0000       -66.517936     -1810.0451
    4    2          10.0000        -8.758436      -238.3292
    5    2           4.0000        -0.161873        -4.4048
    4    3          14.0000        -1.221948       -33.2509


  Species: Se

  List of occupied orbitals and eigenvalues:
    n    l              occ      energy [Ha]    energy [eV]
    1    0           2.0000      -466.337810    -12689.6975
    2    0           2.0000       -59.202598     -1610.9847
    3    0           2.0000        -7.847116      -213.5309
    4    0           2.0000        -0.634372       -17.2621
    2    1           6.0000       -52.061107     -1416.6548
    3    1           6.0000        -5.620941      -152.9536
    4    1           4.0000        -0.238469        -6.4891
    3    2          10.0000        -1.951949       -53.1152

  Spin-polarized or charged system:
  Charge density initialized according to selected moments and charges.

  Creating spin-polarized density from free atoms.

  Species: W
  Charge:   0.000000
  Moment:   1.000000

  List of occupied orbitals and eigenvalues:
    n    l      energy [Ha]    energy [eV]    occupation
  Spin-up
    1    0     -2764.899000    -75236.7298     1.00000000
    2    0      -447.822681    -12185.8752     1.00000000
    3    0      -101.922923     -2773.4638     1.00000000
    4    0       -20.945058      -569.9440     1.00000000
    5    0        -2.905627       -79.0661     1.00000000
    6    0        -0.213317        -5.8046     1.00000000
    2    1      -391.021066    -10640.2246     3.00000000
    3    1       -85.417117     -2324.3180     3.00000000
    4    1       -15.562543      -423.4783     3.00000000
    5    1        -1.590642       -43.2836     3.00000000
    3    2       -66.517516     -1810.0337     5.00000000
    4    2        -8.758257      -238.3243     5.00000000
    5    2        -0.171822        -4.6755     2.50000000
    4    3        -1.222659       -33.2703     7.00000000
  Spin-down
[...]
  |    33       73.399526        0.600474       10.250444       24.682080       24.331097       14.121540        0.014364
  |    34       16.301834       -0.301834        5.855194       10.140981        0.247644        0.048259        0.009756
  |    35       16.300788       -0.300788        5.852939       10.133898        0.254152        0.049779        0.010020
  |    36       73.484823        0.515177       10.336494       24.694117       24.332939       14.108068        0.013205
  |    37       16.320844       -0.320844        5.856125       10.156038        0.251671        0.047376        0.009635
  |    38       16.278755       -0.278755        5.851974       10.117895        0.250116        0.048981        0.009788
  |    39       73.484604        0.515396       10.336186       24.694199       24.332947       14.108067        0.013205
  |    40       16.320712       -0.320712        5.856111       10.155986        0.251615        0.047367        0.009634
  |    41       16.278631       -0.278631        5.851945       10.117819        0.250100        0.048978        0.009789
  |    42       73.399547        0.600453       10.250493       24.682036       24.331116       14.121538        0.014364
  |    43       16.301808       -0.301808        5.855199       10.140964        0.247633        0.048256        0.009755
  |    44       16.300606       -0.300606        5.852918       10.133783        0.254112        0.049775        0.010019
  |    45       73.398215        0.601785       10.253988       24.684615       24.321688       14.123391        0.014533
  |    46       16.301319       -0.301319        5.854918       10.141964        0.246500        0.048178        0.009760
  |    47       16.299647       -0.299647        5.853519       10.135944        0.251114        0.049151        0.009920
  |    48       73.398184        0.601816       10.253950       24.684652       24.321657       14.123392        0.014533
  |    49       16.301350       -0.301350        5.854923       10.141972        0.246513        0.048181        0.009760
  |    50       16.299701       -0.299701        5.853523       10.135971        0.251133        0.049154        0.009920
  |    51       73.399355        0.600645       10.250325       24.682141       24.330985       14.121541        0.014364
  |    52       16.301325       -0.301325        5.854818       10.143903        0.244978        0.047905        0.009721
  |    53       16.299873       -0.299873        5.853523       10.138548        0.249208        0.048743        0.009851
  |    54       73.417398        0.582602       10.258628       24.686062       24.333437       14.124600        0.014670
  |    55       16.296208       -0.296208        5.854318       10.138673        0.245705        0.047854        0.009658
  |    56       16.301951       -0.301951        5.854311       10.144213        0.245970        0.047781        0.009676
  |    57       73.399543        0.600457       10.250491       24.682038       24.331112       14.121537        0.014364
  |    58       16.301246       -0.301246        5.854798       10.143870        0.244956        0.047901        0.009720
  |    59       16.299773       -0.299773        5.853512       10.138482        0.249188        0.048740        0.009850
  |    60       73.399387        0.600613       10.254598       24.685161       24.321920       14.123211        0.014497
  |    61       16.301188       -0.301188        5.854776       10.143827        0.244962        0.047902        0.009720
  |    62       16.299808       -0.299808        5.853514       10.138504        0.249197        0.048741        0.009850
  |    63       73.398175        0.601825       10.253951       24.684650       24.321649       14.123392        0.014533
  |    64       16.301841       -0.301841        5.855195       10.140993        0.247640        0.048258        0.009755
  |    65       16.300794       -0.300794        5.852939       10.133902        0.254154        0.049779        0.010020
  |    66       73.399281        0.600719       10.254486       24.685234       24.321855       14.123210        0.014496
  |    67       16.301318       -0.301318        5.854816       10.143892        0.244983        0.047906        0.009721
  |    68       16.299868       -0.299868        5.853520       10.138540        0.249212        0.048744        0.009851
  |    69       73.400801        0.599199       10.256354       24.686004       24.319865       14.124029        0.014549
  |    70       16.298750       -0.298750        5.854375       10.140825        0.245778        0.048047        0.009725
  |    71       16.300434       -0.300434        5.854272       10.140043        0.247928        0.048407        0.009784
  |    72       73.400896        0.599104       10.256444       24.685956       24.319919       14.124029        0.014549
  |    73       16.298718       -0.298718        5.854356       10.140812        0.245778        0.048047        0.009725
  |    74       16.300413       -0.300413        5.854273       10.140032        0.247919        0.048406        0.009783
  |
  | Total     2634.000000       -0.000000
 
  Summary of the per-atom spin analysis:
  |
  |  atom   spin      l=0         l=1         l=2         l=3         l=4
  |     1    0.000000    0.000000   -0.000000    0.000000   -0.000000   -0.000000
  |     2   -0.000000   -0.000000   -0.000000   -0.000000   -0.000000    0.000000
  |     3   -0.000000   -0.000000   -0.000000   -0.000000   -0.000000    0.000000
  |     4    0.000000    0.000000    0.000000    0.000000   -0.000000   -0.000000
  |     5   -0.000000   -0.000000    0.000000   -0.000000   -0.000000   -0.000000
  |     6   -0.000000   -0.000000    0.000000   -0.000000   -0.000000    0.000000
  |     7    0.000000    0.000000    0.000000    0.000000   -0.000000   -0.000000
  |     8   -0.000000   -0.000000    0.000000   -0.000000   -0.000000   -0.000000
  |     9   -0.000000   -0.000000    0.000000   -0.000000   -0.000000    0.000000
  |    10    0.000000    0.000000   -0.000000    0.000000   -0.000000   -0.000000
  |    11   -0.000000   -0.000000   -0.000000   -0.000000   -0.000000    0.000000
  |    12   -0.000000   -0.000000   -0.000000   -0.000000   -0.000000    0.000000
  |    13    0.000000    0.000000    0.000000    0.000000   -0.000000   -0.000000
  |    14   -0.000000   -0.000000   -0.000000   -0.000000   -0.000000    0.000000
  |    15   -0.000000   -0.000000   -0.000000   -0.000000   -0.000000    0.000000
  |    16    0.000000    0.000000   -0.000000    0.000000   -0.000000   -0.000000
  |    17   -0.000000   -0.000000   -0.000000   -0.000000   -0.000000   -0.000000
  |    18   -0.000000   -0.000000   -0.000000   -0.000000   -0.000000   -0.000000
  |    19    0.000002    0.000000    0.000000    0.000002    0.000000    0.000000
  |    20   -0.000000   -0.000000    0.000000   -0.000000   -0.000000   -0.000000
  |    21   -0.000000   -0.000000    0.000000   -0.000000   -0.000000    0.000000
  |    22   -0.000002   -0.000000   -0.000000   -0.000001   -0.000000   -0.000000
  |    23    0.000001    0.000000    0.000001    0.000000    0.000000   -0.000000
  |    24    0.000002    0.000000    0.000000    0.000002    0.000000    0.000000
  |    25   -0.000000   -0.000000    0.000000   -0.000000   -0.000000   -0.000000
  |    26   -0.000000   -0.000000    0.000000   -0.000000   -0.000000    0.000000
  |    27    0.000000    0.000000   -0.000000    0.000000   -0.000000   -0.000000
  |    28   -0.000000   -0.000000   -0.000000   -0.000000   -0.000000   -0.000000
  |    29   -0.000000   -0.000000   -0.000000   -0.000000   -0.000000   -0.000000
  |    30    0.000000    0.000000   -0.000000    0.000000   -0.000000   -0.000000
  |    31   -0.000000   -0.000000   -0.000000   -0.000000   -0.000000    0.000000
  |    32   -0.000000   -0.000000   -0.000000   -0.000000   -0.000000    0.000000
  |    33    0.000000    0.000000    0.000000    0.000000   -0.000000   -0.000000
  |    34   -0.000000   -0.000000   -0.000000   -0.000000   -0.000000    0.000000
  |    35   -0.000000   -0.000000   -0.000000   -0.000000   -0.000000    0.000000
  |    36   -0.000002   -0.000000   -0.000000   -0.000001   -0.000000   -0.000000
  |    37   -0.000000   -0.000000    0.000000   -0.000000   -0.000000   -0.000000
  |    38   -0.000000   -0.000000    0.000000   -0.000000   -0.000000    0.000000
  |    39   -0.000002   -0.000000   -0.000000   -0.000001   -0.000000   -0.000000
  |    40   -0.000000   -0.000000    0.000000   -0.000000   -0.000000   -0.000000
  |    41   -0.000000   -0.000000    0.000000   -0.000000   -0.000000    0.000000
  |    42    0.000000    0.000000    0.000000    0.000000   -0.000000   -0.000000
  |    43   -0.000000   -0.000000   -0.000000   -0.000000   -0.000000    0.000000
  |    44   -0.000000   -0.000000   -0.000000   -0.000000   -0.000000    0.000000
  |    45    0.000000    0.000000    0.000000    0.000000   -0.000000   -0.000000
  |    46   -0.000000   -0.000000   -0.000000   -0.000000   -0.000000    0.000000
  |    47   -0.000000   -0.000000   -0.000000   -0.000000   -0.000000    0.000000
  |    48    0.000000    0.000000    0.000000    0.000000   -0.000000   -0.000000
  |    49   -0.000000   -0.000000   -0.000000   -0.000000   -0.000000    0.000000
  |    50   -0.000000   -0.000000   -0.000000   -0.000000   -0.000000    0.000000
  |    51    0.000000    0.000000    0.000000    0.000000   -0.000000   -0.000000
  |    52   -0.000000   -0.000000   -0.000000   -0.000000   -0.000000   -0.000000
  |    53   -0.000000   -0.000000   -0.000000   -0.000000   -0.000000   -0.000000
  |    54    0.000002    0.000000    0.000000    0.000002    0.000000    0.000000
  |    55   -0.000000   -0.000000   -0.000000   -0.000000   -0.000000    0.000000
  |    56   -0.000000   -0.000000   -0.000000   -0.000000   -0.000000    0.000000
  |    57    0.000000    0.000000    0.000000    0.000000   -0.000000   -0.000000
  |    58   -0.000000   -0.000000   -0.000000   -0.000000   -0.000000   -0.000000
  |    59   -0.000000   -0.000000   -0.000000   -0.000000   -0.000000   -0.000000
  |    60    0.000000    0.000000   -0.000000    0.000000   -0.000000   -0.000000
  |    61   -0.000000   -0.000000   -0.000000   -0.000000   -0.000000   -0.000000
  |    62   -0.000000   -0.000000   -0.000000   -0.000000   -0.000000   -0.000000
  |    63    0.000000    0.000000    0.000000    0.000000   -0.000000   -0.000000
  |    64   -0.000000   -0.000000   -0.000000   -0.000000   -0.000000    0.000000
  |    65   -0.000000   -0.000000   -0.000000   -0.000000   -0.000000    0.000000
  |    66    0.000000    0.000000   -0.000000    0.000000   -0.000000   -0.000000
  |    67   -0.000000   -0.000000   -0.000000   -0.000000   -0.000000   -0.000000
  |    68   -0.000000   -0.000000   -0.000000   -0.000000   -0.000000   -0.000000
  |    69    0.000000    0.000000   -0.000000    0.000000   -0.000000   -0.000000
  |    70   -0.000000   -0.000000   -0.000000   -0.000000   -0.000000    0.000000
  |    71   -0.000000   -0.000000   -0.000000   -0.000000   -0.000000    0.000000
  |    72    0.000000    0.000000   -0.000000    0.000000   -0.000000   -0.000000
  |    73   -0.000000   -0.000000   -0.000000   -0.000000   -0.000000    0.000000
  |    74   -0.000000   -0.000000   -0.000000   -0.000000   -0.000000    0.000000
  |
  | Total   -0.000000
 
  Calculating angular momentum projected density of states ...
  | Chemical potential is  -4.868616 eV.
  | writing   projected DOS (shifted by the chemical potential) for species S to file S_l_proj_dos_tetrahedron.dat.
  | writing   projected DOS (raw data) for species S to file S_l_proj_dos_tetrahedron_raw.dat.
  | writing   projected DOS (shifted by the chemical potential) for species Mo to file Mo_l_proj_dos_tetrahedron.dat.
  | writing   projected DOS (raw data) for species Mo to file Mo_l_proj_dos_tetrahedron_raw.dat.
  | writing   projected DOS (shifted by the chemical potential) for species W to file W_l_proj_dos_tetrahedron.dat.
  | writing   projected DOS (raw data) for species W to file W_l_proj_dos_tetrahedron_raw.dat.
  | writing   projected DOS (shifted by the chemical potential) for species Se to file Se_l_proj_dos_tetrahedron.dat.
  | writing   projected DOS (raw data) for species Se to file Se_l_proj_dos_tetrahedron_raw.dat.

  Mulliken analysis                                       :  max(cpu_time)    wall_clock(cpu1)
  | Time for Mulliken analysis (scalar relativistic)      :          2.275               2.328
  | Time for Mulliken analysis (spin-orbit coupled)       :          4.212               4.230
  | Total time for Mulliken analysis                      :          6.487               6.558
------------------------------------------------------------

------------------------------------------------------------------------------
  Final output of selected total energy values:

  The following output summarizes some interesting total energy values
  at the end of a run (AFTER all relaxation, molecular dynamics, etc.).

  | Total energy of the DFT / Hartree-Fock s.c.f. calculation      :      -11850595.385247851 eV
  | Final zero-broadening corrected energy (caution - metals only) :      -11850595.385247851 eV
  | Total energy after non-SC SOC correction (DO NOT USE)          :      -11850618.174827760 eV
  | For reference only, the value of 1 Hartree used in FHI-aims is :             27.211384500 eV
  | For reference only, the overall average (free atom contribution
  | + realspace contribution) of the electrostatic potential after
  | s.c.f. convergence is                                          :             -1.226093362 eV

  Before relying on these values, please be sure to understand exactly which
  total energy value is referred to by a given number. Different objects may
  all carry the same name 'total energy'. Definitions:

  Total energy of the DFT / Hartree-Fock s.c.f. calculation:
  | Note that this energy does not include ANY quantities calculated after the
  | s.c.f. cycle, in particular not ANY RPA, MP2, etc. many-body perturbation terms.

  Final zero-broadening corrected energy:
  | For metallic systems only, a broadening of the occupation numbers at the Fermi
  | level can be extrapolated back to zero broadening by an electron-gas inspired
  | formula. For all systems that are not real metals, this value can be
  | meaningless and should be avoided.

------------------------------------------------------------------------------
  Methods described in the following list of references were used in this FHI-aims run.
  If you publish the results, please make sure to cite these reference if they apply.
  FHI-aims is an academic code, and for our developers (often, Ph.D. students
  and postdocs), scientific credit in the community is essential.
  Thank you for helping us!

  For any use of FHI-aims, please cite:

    Volker Blum, Ralf Gehrke, Felix Hanke, Paula Havu, Ville Havu,
    Xinguo Ren, Karsten Reuter, and Matthias Scheffler
    'Ab initio molecular simulations with numeric atom-centered orbitals'
    Computer Physics Communications 180, 2175-2196 (2009)
    http://doi.org/10.1016/j.cpc.2009.06.022


  The provided symmetry information was generated with SPGlib:

    Atsushi Togo, Yusuke Seto, Dimitar Pashov
    SPGlib 1.7.3 obtained from http://spglib.sourceforge.net
    Copyright (C) 2008 Atsushi Togo


  For second-variational spin-orbit coupling used in your run, please cite:

    William P. Huhn and Volker Blum,
    'One-hundred-three compound band-structure benchmark of post-self-consistent'
    'spin-orbit coupling treatments in density functional theory'
    Phys. Rev. Materials 1, 033803 (2017).


  The ELSI infrastructure was used in your run to solve the Kohn-Sham electronic structure.
  Please check out http://elsi-interchange.org to learn more.
  If scalability is important for your project, please acknowledge ELSI by citing:

    V. W-z. Yu, F. Corsetti, A. Garcia, W. P. Huhn, M. Jacquelin, W. Jia,
    B. Lange, L. Lin, J. Lu, W. Mi, A. Seifitokaldani, A. Vazquez-Mayagoitia,
    C. Yang, H. Yang, and V. Blum
    'ELSI: A unified software interface for Kohn-Sham electronic structure solvers'
    Computer Physics Communications 222, 267-285 (2018).
    http://doi.org/10.1016/j.cpc.2017.09.007


  For the real-space grid partitioning and parallelization used in this calculation, please cite:

    Ville Havu, Volker Blum, Paula Havu, and Matthias Scheffler,
    'Efficient O(N) integration for all-electron electronic structure calculation'
    'using numerically tabulated basis functions'
    Journal of Computational Physics 228, 8367-8379 (2009).
    http://doi.org/10.1016/j.jcp.2009.08.008

  Of course, there are many other important community references, e.g., those cited in the
  above references. Our list is limited to references that describe implementations in the
  FHI-aims code. The reason is purely practical (length of this list) - please credit others as well.

------------------------------------------------------------
          Leaving FHI-aims.
          Date     :  20220925, Time     :  120204.819

          Computational steps:
          | Number of self-consistency cycles          :           26
          | Number of SCF (re)initializations          :            1

          Detailed time accounting                     :  max(cpu_time)    wall_clock(cpu1)
          | Total time                                  :      913.474 s         914.989 s
          | Preparation time                            :        1.509 s           1.510 s
          | Boundary condition initalization            :        1.157 s           1.158 s
          | Grid partitioning                           :        1.829 s           1.829 s
          | Preloading free-atom quantities on grid     :        2.401 s           2.402 s
          | Free-atom superposition energy              :        0.082 s           0.083 s
          | Total time for integrations                 :      139.082 s         139.133 s
          | Total time for solution of K.-S. equations  :      333.483 s         333.673 s
          | Total time for density update               :      290.510 s         291.235 s
          | Total time for mixing & preconditioning     :       25.266 s          25.266 s
          | Total time for Hartree multipole update     :        0.432 s           0.432 s
          | Total time for Hartree multipole sum        :       50.490 s          50.504 s
          | Total time for total energy evaluation      :        0.173 s           0.160 s
          | Total time for scaled ZORA corrections      :        0.000 s           0.000 s
          | Total time for vdW correction               :       17.819 s          17.829 s
          | Total time for matrix I/O                   :        8.249 s           9.061 s
          | Total time for perturbative SOC             :       40.353 s          40.371 s
          | Total time for Mulliken analysis            :        6.487 s           6.558 s

          Partial memory accounting:
          | Residual value for overall tracked memory usage across tasks:     0.000000 MB (should be 0.000000 MB)
          | Peak values for overall tracked memory usage:
          |   Minimum:      581.146 MB (on task   5 after allocating temp_cmplx_eienvec)
          |   Maximum:      587.759 MB (on task   0 after allocating temp_cmplx_eienvec)
          |   Average:      583.184 MB
          | Largest tracked array allocation:
          |   Minimum:      147.418 MB (soc_matrix on task   0)
          |   Maximum:      147.418 MB (soc_matrix on task   0)
          |   Average:      147.418 MB
          Note:  These values currently only include a subset of arrays which are explicitly tracked.
          The "true" memory usage will be greater.

          Have a nice day.
------------------------------------------------------------
