------------------------------------------------------------
          Invoking FHI-aims ...

          When using FHI-aims, please cite the following reference:

            Volker Blum, Ralf Gehrke, Felix Hanke, Paula Havu,
            Ville Havu, Xinguo Ren, Karsten Reuter, and Matthias Scheffler,
            'Ab Initio Molecular Simulations with Numeric Atom-Centered Orbitals',
            Computer Physics Communications 180, 2175-2196 (2009)

          In addition, many other developments in FHI-aims are likely important for
          your particular application. A partial list of references is given at the end of
          this file. Thank you for giving credit to the authors of these developments.

          For any questions about FHI-aims, please visit our slack channel at

            https://fhi-aims.slack.com

          and our main development and support site at

            https://aims-git.rz-berlin.mpg.de .

          The latter site, in particular, has a wiki to collect information, as well
          as an issue tracker to log discussions, suggest improvements, and report issues
          or bugs. https://aims-git.rz-berlin.mpg.de is also the main development site
          of the project and all new and updated code versions can be obtained there.
          Please send an email to aims-coordinators@fhi-berlin.mpg.de and we will add
          you to these sites. They are for you and everyone is welcome there.

------------------------------------------------------------



  Date     :  20220929, Time     :  213807.840
  Time zero on CPU 1             :   0.315820000000000E+00  s.
  Internal wall clock time zero  :           433719487.840  s.

  FHI-aims created a unique identifier for this run for later identification
  aims_uuid : B052BF17-B272-4C69-A4D5-042B7DB599E5

  Build configuration of the current instance of FHI-aims
  -------------------------------------------------------
  FHI-aims version      : 220208
  Commit number         : f4a9b4d18
  CMake host system     : Linux-4.12.14-122.88-default
  CMake version         : 3.22.0
  Fortran compiler      : /mpcdf/soft/SLE_12/packages/x86_64/intel_oneapi/2021.3/mpi/2021.3.0/bin/mpiifort (Intel) version 2021.3.0.20210609
  Fortran compiler flags: -O3 -ip -fp-model precise
  C compiler            : /mpcdf/soft/SLE_12/packages/x86_64/intel/2021.3.0/bin/icc (Intel) version 2021.3.0.20210609
  C compiler flags      : -O3 -ip -fp-model precise
  C++ compiler          : /mpcdf/soft/SLE_12/packages/x86_64/intel/2021.3.0/bin/icpc (Intel) version 2021.3.0.20210609
  C++ compiler flags    : -O3 -ip -fp-model precise -std=gnu99
  Using MPI
  Using ScaLAPACK
  Using LibXC
  Using i-PI
  Using RLSY
  Linking against: /mpcdf/soft/SLE_12/packages/x86_64/intel_oneapi/2021.3/mkl/latest/lib/intel64/libmkl_intel_lp64.so
                   /mpcdf/soft/SLE_12/packages/x86_64/intel_oneapi/2021.3/mkl/latest/lib/intel64/libmkl_sequential.so
                   /mpcdf/soft/SLE_12/packages/x86_64/intel_oneapi/2021.3/mkl/latest/lib/intel64/libmkl_core.so
                   /mpcdf/soft/SLE_12/packages/x86_64/intel_oneapi/2021.3/mkl/latest/lib/intel64/libmkl_blacs_intelmpi_lp64.so
                   /mpcdf/soft/SLE_12/packages/x86_64/intel_oneapi/2021.3/mkl/latest/lib/intel64/libmkl_scalapack_lp64.so

  Using      160 parallel tasks.
  Task        0 on host co6623 reporting.
  Task        1 on host co6623 reporting.
  Task        2 on host co6623 reporting.
  Task        3 on host co6623 reporting.
  Task        4 on host co6623 reporting.
  Task        5 on host co6623 reporting.
  Task        6 on host co6623 reporting.
  Task        7 on host co6623 reporting.
  Task        8 on host co6623 reporting.
  Task        9 on host co6623 reporting.
  Task       10 on host co6623 reporting.
  Task       11 on host co6623 reporting.
  Task       12 on host co6623 reporting.
  Task       13 on host co6623 reporting.
  Task       14 on host co6623 reporting.
  Task       15 on host co6623 reporting.
  Task       16 on host co6623 reporting.
  Task       17 on host co6623 reporting.
  Task       18 on host co6623 reporting.
  Task       19 on host co6623 reporting.
  Task       20 on host co6623 reporting.
  Task       21 on host co6623 reporting.
  Task       22 on host co6623 reporting.
  Task       23 on host co6623 reporting.
  Task       24 on host co6623 reporting.
  Task       25 on host co6623 reporting.
  Task       26 on host co6623 reporting.
  Task       27 on host co6623 reporting.
  Task       28 on host co6623 reporting.
  Task       29 on host co6623 reporting.
  Task       30 on host co6623 reporting.
  Task       31 on host co6623 reporting.
  Task       32 on host co6623 reporting.
  Task       33 on host co6623 reporting.
  Task       34 on host co6623 reporting.
  Task       35 on host co6623 reporting.
  Task       36 on host co6623 reporting.
  Task       37 on host co6623 reporting.
  Task       38 on host co6623 reporting.
  Task       39 on host co6623 reporting.
  Task       40 on host co6624 reporting.
  Task       41 on host co6624 reporting.
  Task       42 on host co6624 reporting.
  Task       43 on host co6624 reporting.
  Task       44 on host co6624 reporting.
  Task       45 on host co6624 reporting.
  Task       46 on host co6624 reporting.
  Task       47 on host co6624 reporting.
  Task       48 on host co6624 reporting.
  Task       49 on host co6624 reporting.
  Task       50 on host co6624 reporting.
  Task       51 on host co6624 reporting.
  Task       52 on host co6624 reporting.
  Task       53 on host co6624 reporting.
  Task       54 on host co6624 reporting.
  Task       55 on host co6624 reporting.
  Task       56 on host co6624 reporting.
  Task       57 on host co6624 reporting.
  Task       58 on host co6624 reporting.
  Task       59 on host co6624 reporting.
  Task       60 on host co6624 reporting.
  Task       61 on host co6624 reporting.
  Task       62 on host co6624 reporting.
  Task       63 on host co6624 reporting.
  Task       64 on host co6624 reporting.
  Task       65 on host co6624 reporting.
  Task       66 on host co6624 reporting.
  Task       67 on host co6624 reporting.
  Task       68 on host co6624 reporting.
  Task       69 on host co6624 reporting.
  Task       70 on host co6624 reporting.
  Task       71 on host co6624 reporting.
  Task       72 on host co6624 reporting.
  Task       73 on host co6624 reporting.
  Task       74 on host co6624 reporting.
  Task       75 on host co6624 reporting.
  Task       76 on host co6624 reporting.
  Task       77 on host co6624 reporting.
  Task       78 on host co6624 reporting.
  Task       79 on host co6624 reporting.
  Task       80 on host co6625 reporting.
  Task       81 on host co6625 reporting.
  Task       82 on host co6625 reporting.
  Task       83 on host co6625 reporting.
  Task       84 on host co6625 reporting.
  Task       85 on host co6625 reporting.
  Task       86 on host co6625 reporting.
  Task       87 on host co6625 reporting.
  Task       88 on host co6625 reporting.
  Task       89 on host co6625 reporting.
  Task       90 on host co6625 reporting.
  Task       91 on host co6625 reporting.
  Task       92 on host co6625 reporting.
  Task       93 on host co6625 reporting.
  Task       94 on host co6625 reporting.
  Task       95 on host co6625 reporting.
  Task       96 on host co6625 reporting.
  Task       97 on host co6625 reporting.
  Task       98 on host co6625 reporting.
  Task       99 on host co6625 reporting.
  Task      100 on host co6625 reporting.
  Task      101 on host co6625 reporting.
  Task      102 on host co6625 reporting.
  Task      103 on host co6625 reporting.
  Task      104 on host co6625 reporting.
  Task      105 on host co6625 reporting.
  Task      106 on host co6625 reporting.
  Task      107 on host co6625 reporting.
  Task      108 on host co6625 reporting.
  Task      109 on host co6625 reporting.
  Task      110 on host co6625 reporting.
  Task      111 on host co6625 reporting.
  Task      112 on host co6625 reporting.
  Task      113 on host co6625 reporting.
  Task      114 on host co6625 reporting.
  Task      115 on host co6625 reporting.
  Task      116 on host co6625 reporting.
  Task      117 on host co6625 reporting.
  Task      118 on host co6625 reporting.
  Task      119 on host co6625 reporting.
  Task      120 on host co6627 reporting.
  Task      121 on host co6627 reporting.
  Task      122 on host co6627 reporting.
  Task      123 on host co6627 reporting.
  Task      124 on host co6627 reporting.
  Task      125 on host co6627 reporting.
  Task      126 on host co6627 reporting.
  Task      127 on host co6627 reporting.
  Task      128 on host co6627 reporting.
  Task      129 on host co6627 reporting.
  Task      130 on host co6627 reporting.
  Task      131 on host co6627 reporting.
  Task      132 on host co6627 reporting.
  Task      133 on host co6627 reporting.
  Task      134 on host co6627 reporting.
  Task      135 on host co6627 reporting.
  Task      136 on host co6627 reporting.
  Task      137 on host co6627 reporting.
  Task      138 on host co6627 reporting.
  Task      139 on host co6627 reporting.
  Task      140 on host co6627 reporting.
  Task      141 on host co6627 reporting.
  Task      142 on host co6627 reporting.
  Task      143 on host co6627 reporting.
  Task      144 on host co6627 reporting.
  Task      145 on host co6627 reporting.
  Task      146 on host co6627 reporting.
  Task      147 on host co6627 reporting.
  Task      148 on host co6627 reporting.
  Task      149 on host co6627 reporting.
  Task      150 on host co6627 reporting.
  Task      151 on host co6627 reporting.
  Task      152 on host co6627 reporting.
  Task      153 on host co6627 reporting.
  Task      154 on host co6627 reporting.
  Task      155 on host co6627 reporting.
  Task      156 on host co6627 reporting.
  Task      157 on host co6627 reporting.
  Task      158 on host co6627 reporting.
  Task      159 on host co6627 reporting.

  Performing system and environment tests:
  | Environment variable OMP_NUM_THREADS correctly set to 1.
  | Checking for ScaLAPACK...
  | Testing pdtran()...
  | All pdtran() tests passed.

  Obtaining array dimensions for all initial allocations:
  
  -----------------------------------------------------------------------
  Parsing control.in (first pass over file, find array dimensions only).
  The contents of control.in will be repeated verbatim below
  unless switched off by setting 'verbatim_writeout .false.' .
  in the first line of control.in .
  -----------------------------------------------------------------------
  
    ##### Physical settings  ################
    xc                 pbe
    spin               none
   # default_initial_moment 1
    charge      0.0
    relativistic       atomic_zora scalar
    #elsi_restart read
    # SCF settings
  #  use_symmetric_forces .true.
    relax_geometry trm 1E-3
  
    # k-grid settings  (to be adjusted)
    k_grid  4 4 1
    #empty_states 8
    use_dipole_correction
    many_body_dispersion_nl    beta=0.81
  ################################################################################
  #
  #  FHI-aims code project
  # Volker Blum, Fritz Haber Institute Berlin, 2009
  #
  #  Suggested "tight" defaults for S atom (to be pasted into control.in file)
  #
  #  Revised Jan 04, 2011, following tests (SiC) done by Lydia Nemec:
  #     d and g functions of tier 2 now enabled by default.
  #
  ################################################################################
    species        S
  #     global species definitions
      nucleus             16.00
      mass                32.065
  #
      l_hartree           6
  #
      cut_pot             4.0          2.0  1.0
      basis_dep_cutoff    1e-4
  #
      radial_base         44 7.0
      radial_multiplier   2
      angular_grids       specified
        division   0.4665  110
        division   0.5810  194
        division   0.7139  302
        division   0.8274  434
  #      division   0.9105  590
  #      division   1.0975  770
  #      division   1.2028  974
  #      outer_grid  974
        outer_grid  434
  ################################################################################
  #
  #  Definition of "minimal" basis
  #
  ################################################################################
  #     valence basis states
      valence      3  s   2.
      valence      3  p   4.
  #     ion occupancy
      ion_occ      3  s   1.
      ion_occ      3  p   3.
  ################################################################################
  #
  #  Suggested additional basis functions. For production calculations,
  #  uncomment them one after another (the most important basis functions are
  #  listed first).
  #
  #  Constructed for dimers: 1.6 A, 1.9 A, 2.5 A, 3.25 A, 4.0 A
  #
  ################################################################################
  #  "First tier" - improvements: -652.81 meV to -45.53 meV
       ionic 3 d auto
       hydro 2 p 1.8
       hydro 4 f 7
       ionic 3 s auto
  #  "Second tier" - improvements: -30.20 meV to -1.74 meV
       hydro 4 d 6.2
       hydro 5 g 10.8
  #     hydro 4 p 4.9
  #     hydro 5 f 10
  #     hydro 1 s 0.8
  #  "Third tier" - improvements: -1.04 meV to -0.20 meV
  #     hydro 3 d 3.9
  #     hydro 3 d 2.7
  #     hydro 5 g 12
  #     hydro 4 p 10.4
  #     hydro 5 f 12.4
  #     hydro 2 s 1.9
  #  "Fourth tier" - improvements: -0.35 meV to -0.06 meV
  #     hydro 4 d 10.4
  #     hydro 4 p 7.2
  #     hydro 4 d 10
  #     hydro 5 g 19.2
  #     hydro 4 s 12
  
  ################################################################################
  #
  # For methods that use the localized form of the "resolution of identity" for
  # the two-electron Coulomb operator (RI_method LVL), particularly Hartree-Fock and
  # hybrid density functional calculations, the highest accuracy can be obtained by
  # uncommenting the line beginning with "for_aux"  below, thus adding an extra g radial
  # function to the construction of the product basis set for the expansion.
  # See Ref. New J. Phys. 17, 093020 (2015) for more information, particularly Figs. 1 and 6.
  #
  ################################################################################
  #
  # for_aux hydro 5 g 6.0
  ################################################################################
  #
  #  FHI-aims code project
  # Volker Blum, Fritz Haber Institute Berlin, 2009
  #
  #  Suggested "tight" defaults for Mo atom (to be pasted into control.in file)
  #
  ################################################################################
    species        Mo
  #     global species definitions
      nucleus             42.04
      mass                95.94
  #
      l_hartree           6
  #
      cut_pot             4.0  2.0  1.0
      basis_dep_cutoff    1e-4
  #
      radial_base         59 7.0
      radial_multiplier   2
      angular_grids specified
        division   0.3117   50
        division   0.6750  110
        division   1.0351  194
        division   1.2073  302
        division   1.6402  434
  #      division   1.9185  590
  #      division   2.0237  770
  #      division   2.0980  974
  #      division   2.7972 1202
  #      outer_grid  974
        outer_grid  434
  ################################################################################
  #
  #  Definition of "minimal" basis
  #
  ################################################################################
  #     valence basis states
      valence      5  s   1.04
      valence      4  p   6.
      valence      4  d   5.
  #     ion occupancy
      ion_occ     5  s   0.04
      ion_occ     4  p   6.
      ion_occ     4  d   4.00
  ################################################################################
  #
  #  Suggested additional basis functions. For production calculations,
  #  uncomment them one after another (the most important basis functions are
  #  listed first).
  #
  #  Constructed for dimers: 1.675 A, 1.9 A, 2.375 A, 3.00 A, 4.00 A
  #
  ################################################################################
  #  "First tier"  - max. impr. -711.23  meV, min. impr. -21.07 meV
       hydro 4 f 8.4
       hydro 3 d 2.8
       ionic 5 p auto
       hydro 5 g 12
       ionic 5 s auto
  #  "Second tier" - max. impr. -39.38  meV, min. impr. -2.68 meV
  #     hydro 4 f 12.4
  #     hydro 3 d 3.3
  #     hydro 6 h 17.2
  #     hydro 4 f 7.6
  #     hydro 3 p 3.0
  #     hydro 1 s 0.65
  #  "Third tier"  - max. impr. -5.50 meV, min. impr. -0.47 meV
  #     hydro 4 f 29.2
  #     hydro 5 g 11.2
  #     hydro 3 d 6.8
  #     hydro 6 h 14.8
  #     hydro 2 p 2.3
  #     hydro 4 s 3.8
  #  "Fourth tier"  - max. impr. -0.58 meV, min. impr. -0.19 meV
  #     hydro 5 f 6.8
  #     hydro 5 d 14.8
  #     hydro 6 s 7.8
  #     hydro 5 g 20.8
  #     hydro 5 d 10.4
  #     hydro 5 p 9.8
  #  Further functions - -0.17 meV and below
  #     hydro 5 d 3.2
  ################################################################################
  #
  #  FHI-aims code project
  # Volker Blum, Fritz Haber Institute Berlin, 2009
  #
  #  Suggested "tight" defaults for W atom (to be pasted into control.in file)
  #
  ################################################################################
    species          W
  #     global species definitions
      nucleus        74
      mass           183.84
  #
      l_hartree      6
  #
      cut_pot        4.0  2.0  1.0
      basis_dep_cutoff    1e-4
  #
      radial_base    71  7.0
      radial_multiplier  2
      angular_grids specified
        division   0.2901   50
        division   0.6986  110
        division   1.0528  194
        division   1.2659  302
        division   1.5223  434
  #      division   1.8111  590
  #      division   2.0105  770
  #      division   2.0413  974
  #      division   2.8804 1202
  #      outer_grid  974
        outer_grid  434
  ################################################################################
  #
  #  Definition of "minimal" basis
  #
  ################################################################################
  #     valence basis states
      valence      6  s   2.
      valence      5  p   6.
      valence      5  d   4.
      valence      4  f  14.
  #     ion occupancy
      ion_occ      6  s   1.
      ion_occ      5  p   6.
      ion_occ      5  d   3.
      ion_occ      4  f  14.
  ################################################################################
  #
  #  Suggested additional basis functions. For production calculations,
  #  uncomment them one after another (the most important basis functions are
  #  listed first).
  #
  #  Constructed for dimers: 1.775, 1.99, 2.50, 3.25, 4.50 AA
  #
  ################################################################################
  #
  #  "First tier" - improvements: -603.77 meV to -28.99 meV
       hydro 4 f 7.8
       hydro 4 d 5.8
       ionic 6 p auto
       hydro 5 g 12.4
       ionic 6 s auto
  #  "Second tier" - improvements: -28.30 meV to -1.31 meV
  #     hydro 6 h 16.8
  #     ionic 5 d auto
  #     hydro 4 f 8.6
  #     hydro 5 g 16.8
  #     hydro 5 d 8.4
  #     hydro 3 p 3.3
  #     hydro 1 s 0.55
  #  "Third tier" - max. impr. -1.79 meV, min. impr. -0.26 meV
  #     hydro 5 f 10.8
  #     hydro 5 g 34.4
  #     hydro 6 h 20.8
  #     hydro 5 g 12.8
  #     hydro 2 p 1.6
  #     hydro 4 s 4.7
  #     hydro 6 d 18.4
  #  "Fourth tier" -0.46 max. impr. - meV, min. impr. -0.09 meV
  #     hydro 6 h 21.6
  #     hydro 5 f 22.4
  #     hydro 4 f 4
  #     hydro 5 p 9.6
  #     hydro 6 d 17.2
  #     hydro 3 p 5.2
  #     hydro 5 g 4.7
  #     hydro 6 s 7.6
  ################################################################################
  #
  #  FHI-aims code project
  # Volker Blum, Fritz Haber Institute Berlin, 2009
  #
  #  Suggested "tight" defaults for Se atom (to be pasted into control.in file)
  #
  ################################################################################
    species        Se
  #     global species definitions
      nucleus             34
      mass                78.96
  #
      l_hartree           6
  #
      cut_pot             4.0          2.0  1.0
      basis_dep_cutoff    1e-4
  #
      radial_base         55 7.0
      radial_multiplier   2
      angular_grids       specified
        division   0.0830  110
        division   0.1357  194
        division   0.7377  302
        division   0.8610  434
  #      division   0.9640  590
  #      division   1.0773  770
  #      division   2.5539  974
  #      outer_grid  974
        outer_grid  434
  ################################################################################
  #
  #  Definition of "minimal" basis
  #
  ################################################################################
  #     valence basis states
      valence      4  s   2.
      valence      4  p   4.
      valence      3  d  10.
  #     ion occupancy
      ion_occ      4  s   1.
      ion_occ      4  p   3.
      ion_occ      3  d  10.
  ################################################################################
  #
  #  Suggested additional basis functions. For production calculations,
  #  uncomment them one after another (the most important basis functions are
  #  listed first).
  #
  #  Constructed for dimers: 1.85 A, 2.15 A, 2.50 A, 3.00 A, 4.00 A
  #
  ################################################################################
  #  "First tier" - improvements: -336.21 meV to -36.85 meV
       hydro 3 d 4.3
       hydro 2 p 1.6
       hydro 4 f 7.2
       ionic 4 s auto
  #  "Second tier" - improvements: -14.39 meV to -1.49 meV
  #     hydro 5 g 10.4
  #     hydro 4 p 4.5
  #     hydro 4 d 6.2
  #     hydro 4 f 11.2
  #     hydro 1 s 0.65
  #     hydro 6 h 15.2
  #  "Third tier" - improvements: -0.46 meV and below
  #     hydro 5 g 14.4
  #     ionic 4 d auto
  #     hydro 4 f 22.4
  #     hydro 5 f 7.4
  #     hydro 5 p 8
  #     hydro 5 s 9.4
  #  "Fourth tier" - improvements: -0.12 meV and below
  #     hydro 5 d 11.6
  #     hydro 6 h 18
  #     hydro 4 p 4
  #     hydro 5 f 16
  #     hydro 4 s 3.9
  
  
  
  -----------------------------------------------------------------------
  Completed first pass over input file control.in .
  -----------------------------------------------------------------------
  
  
  -----------------------------------------------------------------------
  Parsing geometry.in (first pass over file, find array dimensions only).
  The contents of geometry.in will be repeated verbatim below
  unless switched off by setting 'verbatim_writeout .false.' .
  in the first line of geometry.in .
  -----------------------------------------------------------------------
  
  #
  # This is the geometry file that corresponds to the current relaxation step.
  # If you do not want this file to be written, set the "write_restart_geometry" flag to .false.
  #  aims_uuid : FE3A8634-EE30-400A-ABDA-731301E7CACA
  #
    set_vacuum_level        -0.347230
  lattice_vector     15.76960250      0.00000000      0.00000000
  lattice_vector     -7.88732950     13.65525595      0.00000000
  lattice_vector      0.00000000      0.00000000     99.30554027
  atom      -3.94056799     -5.91680376     49.99999780 Mo
  atom      -2.36371406     -5.00648503     48.43464176 S
  atom      -2.36371479     -5.00648485     51.56535655 S
  atom      -5.51805213     -3.18573734     49.99999881 Mo
  atom      -3.94117186     -2.27544474     48.43464306 S
  atom      -3.94117179     -2.27544662     51.56535595 S
  atom      -7.09550081     -0.45470159     50.00000005 Mo
  atom      -5.51863847      0.45562037     48.43464736 S
  atom      -5.51863937      0.45561940     51.56535389 S
  atom      -8.67298021      2.27636612     50.00000005 Mo
  atom      -7.09610936      3.18665261     48.43464032 S
  atom      -7.09610975      3.18665300     51.56536114 S
  atom     -10.25043223      5.00743026     49.99999845 Mo
  atom      -8.67355731      5.91771132     48.43464866 S
  atom      -8.67355792      5.91771215     51.56535188 S
  atom      -0.78667243     -5.91679236     49.99999942 Mo
  atom       0.79021135     -5.00649541     48.43464476 S
  atom       0.79021119     -5.00649556     51.56535443 S
  atom      -2.36411575     -3.18574059     49.99999854 Mo
  atom      -0.78724444     -2.27543432     48.43464332 S
  atom      -0.78724519     -2.27543652     51.56535678 S
  atom      -3.94159422     -0.45469964     50.00000015 Mo
  atom      -2.36472273      0.45560853     48.43464788 S
  atom      -2.36472344      0.45560737     51.56535443 S
  atom      -5.51905538      2.27637647     50.00000031 Mo
  atom      -3.94218109      3.18665985     48.43464863 S
  atom      -3.94218192      3.18665931     51.56535389 S
  atom      -7.09651455      5.00740000     49.99999979 Mo
  atom      -5.51965373      5.91771950     48.43464145 S
  atom      -5.51965525      5.91772127     51.56535960 S
  atom       2.36727581     -5.91679429     49.99999877 Mo
  atom       3.94413527     -5.00648977     48.43464043 S
  atom       3.94413528     -5.00648972     51.56535876 S
  atom       0.78980152     -3.18576476     49.99999970 Mo
  atom       2.36666070     -2.27543234     48.43464363 S
  atom       2.36666085     -2.27543332     51.56535672 S
  atom      -0.78767803     -0.45469706     50.00000029 Mo
  atom       0.78920180      0.45561360     48.43465024 S
  atom       0.78920234      0.45561242     51.56535128 S
  atom      -2.36513299      2.27635975     49.99999978 Mo
  atom      -0.78826446      3.18666381     48.43464846 S
  atom      -0.78826457      3.18666420     51.56535330 S
  atom      -3.94261069      5.00741160     50.00000120 Mo
  atom      -2.36573410      5.91770594     48.43465069 S
  atom      -2.36573363      5.91770826     51.56535078 S
  atom       5.52118517     -5.91680075     49.99999861 Mo
  atom       7.09804941     -5.00649502     48.43464568 S
  atom       7.09804884     -5.00649449     51.56535469 S
  atom       3.94371494     -3.18575258     49.99999997 Mo
  atom       5.52058363     -2.27543897     48.43465677 S
  atom       5.52058360     -2.27543872     51.56534320 S
  atom       2.36625580     -0.45469682     50.00000025 Mo
  atom       3.94311710      0.45560924     48.43464002 S
  atom       3.94311839      0.45560847     51.56535987 S
  atom       0.78878348      2.27636061     49.99999958 Mo
  atom       2.36565687      3.18666148     48.43465053 S
  atom       2.36565813      3.18666110     51.56535064 S
  atom      -0.78867004      5.00741294     49.99999934 Mo
  atom       0.78818582      5.91771675     48.43463763 S
  atom       0.78818593      5.91771830     51.56536344 S
  atom       8.67510573     -5.91679294     49.99999992 Mo
  atom      10.25197657     -5.00648897     48.43464795 S
  atom      10.25197802     -5.00648833     51.56535061 S
  atom       7.09764562     -3.18574707     50.00000027 Mo
  atom       8.67450446     -2.27543409     48.43463757 S
  atom       8.67450502     -2.27543470     51.56536177 S
  atom       5.52017076     -0.45467813     49.99999917 Mo
  atom       7.09704731      0.45561089     48.43464713 S
  atom       7.09704709      0.45560966     51.56535318 S
  atom       3.94271376      2.27635773     49.99999861 Mo
  atom       5.51957097      3.18666135     48.43464925 S
  atom       5.51957104      3.18666199     51.56535149 S
  atom       2.36523564      5.00741989     49.99999992 Mo
  atom       3.94210046      5.91770115     48.43464309 S
  atom       3.94210199      5.91770368     51.56535671 S
  #
  # What follows is the current estimated Hessian matrix constructed by the BFGS algorithm.
  # This is NOT the true Hessian matrix of the system.
  # If you do not want this information here, switch it off using the "hessian_to_restart_geometry" keyword.
  #
  
  -----------------------------------------------------------------------
  Completed first pass over input file geometry.in .
  -----------------------------------------------------------------------
  

  Basic array size parameters:
  | Number of species                 :        4
  | Number of atoms                   :       75
  | Number of lattice vectors         :        3
  | Max. basis fn. angular momentum   :        4
  | Max. atomic/ionic basis occupied n:        6
  | Max. number of basis fn. types    :        3
  | Max. radial fns per species/type  :       14
  | Max. logarithmic grid size        :     1483
  | Max. radial integration grid size :      143
  | Max. angular integration grid size:      434
  | Max. angular grid division number :        8
  | Radial grid for Hartree potential :     1483
  | Number of spin channels           :        1

------------------------------------------------------------
          Reading file control.in.
------------------------------------------------------------
  XC: Using PBE gradient-corrected functionals.
  Spin treatment: No spin polarisation.
  Charge =   0.000000E+00: Neutral system requested explicitly.
  Scalar relativistic treatment of kinetic energy: on-site free-atom approximation to ZORA.
  Geometry relaxation: Modified BFGS - TRM (trust radius method) for lattice optimization.
  Convergence accuracy for geometry relaxation: Maximum force <   0.100000E-02 eV/A.
  Found k-point grid:         4         4         1
  Using dipole correction.
  Using libMBD for calculating MBD and TS energies
 
  Reading configuration options for species S                   .
  | Found nuclear charge :  16.0000
  | Found atomic mass :    32.0650000000000      amu
  | Found l_max for Hartree potential  :   6
  | Found cutoff potl. onset [A], width [A], scale factor :    4.00000    2.00000    1.00000
  | Threshold for basis-dependent cutoff potential is   0.100000E-03
  | Found data for basic radial integration grid :    44 points, outermost radius =    7.000 A
  | Found multiplier for basic radial grid :   2
  | Found angular grid specification: user-specified.
  | Specified grid contains     5 separate shells.
  | Check grid settings after all constraints further below.
  | Found free-atom valence shell :  3 s   2.000
  | Found free-atom valence shell :  3 p   4.000
  | Found free-ion valence shell :  3 s   1.000
  | Found free-ion valence shell :  3 p   3.000
  | Found ionic basis function :  3 d , default cutoff radius.
  | Found hydrogenic basis function :  2 p   1.800
  | Found hydrogenic basis function :  4 f   7.000
  | Found ionic basis function :  3 s , default cutoff radius.
  | Found hydrogenic basis function :  4 d   6.200
  | Found hydrogenic basis function :  5 g  10.800
  Species S                   : Missing cutoff potential type.
  Defaulting to exp(1/x)/(1-x)^2 type cutoff potential.
  Species S : No 'logarithmic' tag. Using default grid for free atom:
  | Default logarithmic grid data [bohr] : 0.1000E-03 0.1000E+03 0.1012E+01
  | Will include ionic basis functions of  2.0-fold positive S                    ion.
  Species S : On-site basis accuracy parameter (for Gram-Schmidt orthonormalisation) not specified.
  Using default value basis_acc =  0.1000000E-03.
  Species S                   : Using default innermost maximum threshold i_radial=  2 for radial functions.
  Species S                   : Default cutoff onset for free atom density etc. : 0.40000000E+01 AA.
  Species S                   : Basic radial grid will be enhanced according to radial_multiplier =   2, to contain    89 grid points.
 
  Reading configuration options for species Mo                  .
  | Found nuclear charge :  42.0400
  | Found atomic mass :    95.9400000000000      amu
  | Found l_max for Hartree potential  :   6
  | Found cutoff potl. onset [A], width [A], scale factor :    4.00000    2.00000    1.00000
  | Threshold for basis-dependent cutoff potential is   0.100000E-03
  | Found data for basic radial integration grid :    59 points, outermost radius =    7.000 A
  | Found multiplier for basic radial grid :   2
  | Found angular grid specification: user-specified.
  | Specified grid contains     6 separate shells.
  | Check grid settings after all constraints further below.
  | Found free-atom valence shell :  5 s   1.040
  | Found free-atom valence shell :  4 p   6.000
  | Found free-atom valence shell :  4 d   5.000
  | Found free-ion valence shell :  5 s   0.040
  | Found free-ion valence shell :  4 p   6.000
  | Found free-ion valence shell :  4 d   4.000
  | Found hydrogenic basis function :  4 f   8.400
  | Found hydrogenic basis function :  3 d   2.800
  | Found ionic basis function :  5 p , default cutoff radius.
  | Found hydrogenic basis function :  5 g  12.000
  | Found ionic basis function :  5 s , default cutoff radius.
  Species Mo                  : Missing cutoff potential type.
  Defaulting to exp(1/x)/(1-x)^2 type cutoff potential.
  Species Mo: No 'logarithmic' tag. Using default grid for free atom:
  | Default logarithmic grid data [bohr] : 0.1000E-03 0.1000E+03 0.1012E+01
  | Will include ionic basis functions of  2.0-fold positive Mo                   ion.
  Species Mo: On-site basis accuracy parameter (for Gram-Schmidt orthonormalisation) not specified.
  Using default value basis_acc =  0.1000000E-03.
  Species Mo                  : Using default innermost maximum threshold i_radial=  2 for radial functions.
  Species Mo                  : Default cutoff onset for free atom density etc. : 0.40000000E+01 AA.
  Species Mo                  : Basic radial grid will be enhanced according to radial_multiplier =   2, to contain   119 grid points.
 
  Reading configuration options for species W                   .
  | Found nuclear charge :  74.0000
  | Found atomic mass :    183.840000000000      amu
  | Found l_max for Hartree potential  :   6
  | Found cutoff potl. onset [A], width [A], scale factor :    4.00000    2.00000    1.00000
  | Threshold for basis-dependent cutoff potential is   0.100000E-03
  | Found data for basic radial integration grid :    71 points, outermost radius =    7.000 A
  | Found multiplier for basic radial grid :   2
  | Found angular grid specification: user-specified.
  | Specified grid contains     6 separate shells.
  | Check grid settings after all constraints further below.
  | Found free-atom valence shell :  6 s   2.000
  | Found free-atom valence shell :  5 p   6.000
  | Found free-atom valence shell :  5 d   4.000
  | Found free-atom valence shell :  4 f  14.000
  | Found free-ion valence shell :  6 s   1.000
  | Found free-ion valence shell :  5 p   6.000
  | Found free-ion valence shell :  5 d   3.000
  | Found free-ion valence shell :  4 f  14.000
  | Found hydrogenic basis function :  4 f   7.800
  | Found hydrogenic basis function :  4 d   5.800
  | Found ionic basis function :  6 p , default cutoff radius.
  | Found hydrogenic basis function :  5 g  12.400
  | Found ionic basis function :  6 s , default cutoff radius.
  Species W                   : Missing cutoff potential type.
  Defaulting to exp(1/x)/(1-x)^2 type cutoff potential.
  Species W : No 'logarithmic' tag. Using default grid for free atom:
  | Default logarithmic grid data [bohr] : 0.1000E-03 0.1000E+03 0.1012E+01
  | Will include ionic basis functions of  2.0-fold positive W                    ion.
  Species W : On-site basis accuracy parameter (for Gram-Schmidt orthonormalisation) not specified.
  Using default value basis_acc =  0.1000000E-03.
  Species W                   : Using default innermost maximum threshold i_radial=  2 for radial functions.
  Species W                   : Default cutoff onset for free atom density etc. : 0.40000000E+01 AA.
  Species W                   : Basic radial grid will be enhanced according to radial_multiplier =   2, to contain   143 grid points.
 
  Reading configuration options for species Se                  .
  | Found nuclear charge :  34.0000
  | Found atomic mass :    78.9600000000000      amu
  | Found l_max for Hartree potential  :   6
  | Found cutoff potl. onset [A], width [A], scale factor :    4.00000    2.00000    1.00000
  | Threshold for basis-dependent cutoff potential is   0.100000E-03
  | Found data for basic radial integration grid :    55 points, outermost radius =    7.000 A
  | Found multiplier for basic radial grid :   2
  | Found angular grid specification: user-specified.
  | Specified grid contains     5 separate shells.
  | Check grid settings after all constraints further below.
  | Found free-atom valence shell :  4 s   2.000
  | Found free-atom valence shell :  4 p   4.000
  | Found free-atom valence shell :  3 d  10.000
  | Found free-ion valence shell :  4 s   1.000
  | Found free-ion valence shell :  4 p   3.000
  | Found free-ion valence shell :  3 d  10.000
  | Found hydrogenic basis function :  3 d   4.300
  | Found hydrogenic basis function :  2 p   1.600
  | Found hydrogenic basis function :  4 f   7.200
  | Found ionic basis function :  4 s , default cutoff radius.
  Species Se                  : Missing cutoff potential type.
  Defaulting to exp(1/x)/(1-x)^2 type cutoff potential.
  Species Se: No 'logarithmic' tag. Using default grid for free atom:
  | Default logarithmic grid data [bohr] : 0.1000E-03 0.1000E+03 0.1012E+01
  | Will include ionic basis functions of  2.0-fold positive Se                   ion.
  Species Se: On-site basis accuracy parameter (for Gram-Schmidt orthonormalisation) not specified.
  Using default value basis_acc =  0.1000000E-03.
  Species Se                  : Using default innermost maximum threshold i_radial=  2 for radial functions.
  Species Se                  : Default cutoff onset for free atom density etc. : 0.40000000E+01 AA.
  Species Se                  : Basic radial grid will be enhanced according to radial_multiplier =   2, to contain   111 grid points.
 
  Finished reading input file 'control.in'.
 
------------------------------------------------------------


------------------------------------------------------------
          Reading geometry description geometry.in.
------------------------------------------------------------
  Vacuum level in z-axis :  -0.347230E+00
  | The smallest distance between any two atoms is         2.40112395 AA.
  | The first atom of this pair is atom number                     18 .
  | The second atom of this pair is atom number                    34 .
  | Wigner-Seitz cell of the first atom image           0     0     0 .
  | (The Wigner-Seitz cell of the second atom is 0 0 0  by definition.)

  Symmetry information by spglib:
  | Precision set to  0.1E-04
  | Number of Operations  : 1
  | Space group           : 1
  | International         : P1  S atom
  | Schoenflies           : C1^1
  Input structure read successfully.
  The structure contains       75 atoms,  and a total of       1851.000 electrons.

  Input geometry:
  | Unit cell:
  |       15.76960250        0.00000000        0.00000000
  |       -7.88732950       13.65525595        0.00000000
  |        0.00000000        0.00000000       99.30554027
  | Atomic structure:
  |       Atom                x [A]            y [A]            z [A]
  |    1: Species Mo           -3.94056799       -5.91680376       49.99999780
  |    2: Species S            -2.36371406       -5.00648503       48.43464176
  |    3: Species S            -2.36371479       -5.00648485       51.56535655
  |    4: Species Mo           -5.51805213       -3.18573734       49.99999881
  |    5: Species S            -3.94117186       -2.27544474       48.43464306
  |    6: Species S            -3.94117179       -2.27544662       51.56535595
  |    7: Species Mo           -7.09550081       -0.45470159       50.00000005
  |    8: Species S            -5.51863847        0.45562037       48.43464736
  |    9: Species S            -5.51863937        0.45561940       51.56535389
  |   10: Species Mo           -8.67298021        2.27636612       50.00000005
  |   11: Species S            -7.09610936        3.18665261       48.43464032
  |   12: Species S            -7.09610975        3.18665300       51.56536114
  |   13: Species Mo          -10.25043223        5.00743026       49.99999845
  |   14: Species S            -8.67355731        5.91771132       48.43464866
  |   15: Species S            -8.67355792        5.91771215       51.56535188
  |   16: Species Mo           -0.78667243       -5.91679236       49.99999942
  |   17: Species S             0.79021135       -5.00649541       48.43464476
  |   18: Species S             0.79021119       -5.00649556       51.56535443
  |   19: Species Mo           -2.36411575       -3.18574059       49.99999854
  |   20: Species S            -0.78724444       -2.27543432       48.43464332
  |   21: Species S            -0.78724519       -2.27543652       51.56535678
  |   22: Species Mo           -3.94159422       -0.45469964       50.00000015
  |   23: Species S            -2.36472273        0.45560853       48.43464788
  |   24: Species S            -2.36472344        0.45560737       51.56535443
  |   25: Species Mo           -5.51905538        2.27637647       50.00000031
  |   26: Species S            -3.94218109        3.18665985       48.43464863
  |   27: Species S            -3.94218192        3.18665931       51.56535389
  |   28: Species Mo           -7.09651455        5.00740000       49.99999979
  |   29: Species S            -5.51965373        5.91771950       48.43464145
  |   30: Species S            -5.51965525        5.91772127       51.56535960
  |   31: Species Mo            2.36727581       -5.91679429       49.99999877
  |   32: Species S             3.94413527       -5.00648977       48.43464043
  |   33: Species S             3.94413528       -5.00648972       51.56535876
  |   34: Species Mo            0.78980152       -3.18576476       49.99999970
  |   35: Species S             2.36666070       -2.27543234       48.43464363
  |   36: Species S             2.36666085       -2.27543332       51.56535672
  |   37: Species Mo           -0.78767803       -0.45469706       50.00000029
  |   38: Species S             0.78920180        0.45561360       48.43465024
  |   39: Species S             0.78920234        0.45561242       51.56535128
  |   40: Species Mo           -2.36513299        2.27635975       49.99999978
  |   41: Species S            -0.78826446        3.18666381       48.43464846
  |   42: Species S            -0.78826457        3.18666420       51.56535330
  |   43: Species Mo           -3.94261069        5.00741160       50.00000120
  |   44: Species S            -2.36573410        5.91770594       48.43465069
  |   45: Species S            -2.36573363        5.91770826       51.56535078
  |   46: Species Mo            5.52118517       -5.91680075       49.99999861
  |   47: Species S             7.09804941       -5.00649502       48.43464568
  |   48: Species S             7.09804884       -5.00649449       51.56535469
  |   49: Species Mo            3.94371494       -3.18575258       49.99999997
  |   50: Species S             5.52058363       -2.27543897       48.43465677
  |   51: Species S             5.52058360       -2.27543872       51.56534320
  |   52: Species Mo            2.36625580       -0.45469682       50.00000025
  |   53: Species S             3.94311710        0.45560924       48.43464002
  |   54: Species S             3.94311839        0.45560847       51.56535987
  |   55: Species Mo            0.78878348        2.27636061       49.99999958
  |   56: Species S             2.36565687        3.18666148       48.43465053
  |   57: Species S             2.36565813        3.18666110       51.56535064
  |   58: Species Mo           -0.78867004        5.00741294       49.99999934
  |   59: Species S             0.78818582        5.91771675       48.43463763
  |   60: Species S             0.78818593        5.91771830       51.56536344
  |   61: Species Mo            8.67510573       -5.91679294       49.99999992
  |   62: Species S            10.25197657       -5.00648897       48.43464795
  |   63: Species S            10.25197802       -5.00648833       51.56535061
  |   64: Species Mo            7.09764562       -3.18574707       50.00000027
  |   65: Species S             8.67450446       -2.27543409       48.43463757
  |   66: Species S             8.67450502       -2.27543470       51.56536177
  |   67: Species Mo            5.52017076       -0.45467813       49.99999917
  |   68: Species S             7.09704731        0.45561089       48.43464713
  |   69: Species S             7.09704709        0.45560966       51.56535318
  |   70: Species Mo            3.94271376        2.27635773       49.99999861
  |   71: Species S             5.51957097        3.18666135       48.43464925
  |   72: Species S             5.51957104        3.18666199       51.56535149
  |   73: Species Mo            2.36523564        5.00741989       49.99999992
  |   74: Species S             3.94210046        5.91770115       48.43464309
  |   75: Species S             3.94210199        5.91770368       51.56535671

  Lattice parameters for 3D lattice (in Angstroms) :    15.769602   15.769464   99.305540
  Angle(s) between unit vectors (in degrees)       :    90.000000   90.000000  120.010899


  Quantities derived from the lattice vectors:
  | Reciprocal lattice vector 1:  0.398437  0.230138  0.000000
  | Reciprocal lattice vector 2:  0.000000  0.460129  0.000000
  | Reciprocal lattice vector 3:  0.000000  0.000000  0.063271
  | Unit cell volume                               :   0.213843E+05  A^3

  Fractional coordinates:
                         L1                L2                L3
       atom_frac        -0.46660257       -0.43329863        0.50349656  Mo
       atom_frac        -0.33326645       -0.36663429        0.48773353  S
       atom_frac        -0.33326649       -0.36663427        0.51925961  S
       atom_frac        -0.46660317       -0.23329752        0.50349657  Mo
       atom_frac        -0.33326634       -0.16663509        0.48773354  S
       atom_frac        -0.33326640       -0.16663522        0.51925961  S
       atom_frac        -0.46660264       -0.03329865        0.50349658  Mo
       atom_frac        -0.33326587        0.03336593        0.48773359  S
       atom_frac        -0.33326597        0.03336586        0.51925959  S
       atom_frac        -0.46660290        0.16670256        0.50349658  Mo
       atom_frac        -0.33326688        0.23336455        0.48773352  S
       atom_frac        -0.33326689        0.23336457        0.51925966  S
       atom_frac        -0.46660154        0.36670351        0.50349657  Mo
       atom_frac        -0.33326547        0.43336510        0.48773360  S
       atom_frac        -0.33326548        0.43336516        0.51925957  S
       atom_frac        -0.26660374       -0.43329780        0.50349658  Mo
       atom_frac        -0.13326652       -0.36663505        0.48773356  S
       atom_frac        -0.13326654       -0.36663506        0.51925959  S
       atom_frac        -0.26660228       -0.23329776        0.50349657  Mo
       atom_frac        -0.13326552       -0.16663432        0.48773355  S
       atom_frac        -0.13326565       -0.16663448        0.51925962  S
       atom_frac        -0.26660346       -0.03329851        0.50349658  Mo
       atom_frac        -0.13326661        0.03336507        0.48773359  S
       atom_frac        -0.13326670        0.03336498        0.51925959  S
       atom_frac        -0.26660224        0.16670332        0.50349658  Mo
       atom_frac        -0.13326613        0.23336508        0.48773360  S
       atom_frac        -0.13326620        0.23336504        0.51925959  S
       atom_frac        -0.26660283        0.36670129        0.50349658  Mo
       atom_frac        -0.13326624        0.43336570        0.48773353  S
       atom_frac        -0.13326628        0.43336583        0.51925965  S
       atom_frac        -0.06660205       -0.43329794        0.50349657  Mo
       atom_frac         0.06673390       -0.36663463        0.48773352  S
       atom_frac         0.06673390       -0.36663463        0.51925964  S
       atom_frac        -0.06660337       -0.23329953        0.50349658  Mo
       atom_frac         0.06673358       -0.16663418        0.48773355  S
       atom_frac         0.06673355       -0.16663425        0.51925962  S
       atom_frac        -0.06660363       -0.03329832        0.50349658  Mo
       atom_frac         0.06673383        0.03336544        0.48773362  S
       atom_frac         0.06673382        0.03336535        0.51925956  S
       atom_frac        -0.06660273        0.16670209        0.50349658  Mo
       atom_frac         0.06673377        0.23336537        0.48773360  S
       atom_frac         0.06673378        0.23336540        0.51925958  S
       atom_frac        -0.06660346        0.36670214        0.50349659  Mo
       atom_frac         0.06673320        0.43336470        0.48773362  S
       atom_frac         0.06673332        0.43336487        0.51925956  S
       atom_frac         0.13339701       -0.43329841        0.50349657  Mo
       atom_frac         0.26673331       -0.36663502        0.48773357  S
       atom_frac         0.26673329       -0.36663498        0.51925960  S
       atom_frac         0.13339662       -0.23329864        0.50349658  Mo
       atom_frac         0.26673349       -0.16663466        0.48773368  S
       atom_frac         0.26673350       -0.16663464        0.51925948  S
       atom_frac         0.13339722       -0.03329830        0.50349658  Mo
       atom_frac         0.26673334        0.03336512        0.48773351  S
       atom_frac         0.26673340        0.03336506        0.51925965  S
       atom_frac         0.13339704        0.16670216        0.50349658  Mo
       atom_frac         0.26673374        0.23336520        0.48773362  S
       atom_frac         0.26673381        0.23336517        0.51925955  S
       atom_frac         0.13339787        0.36670224        0.50349657  Mo
       atom_frac         0.26673356        0.43336549        0.48773349  S
       atom_frac         0.26673363        0.43336561        0.51925968  S
       atom_frac         0.33339730       -0.43329784        0.50349658  Mo
       atom_frac         0.46673395       -0.36663458        0.48773359  S
       atom_frac         0.46673407       -0.36663453        0.51925955  S
       atom_frac         0.33339747       -0.23329823        0.50349658  Mo
       atom_frac         0.46673369       -0.16663431        0.48773349  S
       atom_frac         0.46673370       -0.16663435        0.51925967  S
       atom_frac         0.33339755       -0.03329693        0.50349657  Mo
       atom_frac         0.46673402        0.03336524        0.48773358  S
       atom_frac         0.46673396        0.03336515        0.51925958  S
       atom_frac         0.33339756        0.16670195        0.50349657  Mo
       atom_frac         0.46673333        0.23336519        0.48773361  S
       atom_frac         0.46673336        0.23336523        0.51925956  S
       atom_frac         0.33339718        0.36670275        0.50349658  Mo
       atom_frac         0.46673262        0.43336435        0.48773354  S
       atom_frac         0.46673281        0.43336454        0.51925962  S

 
  Finished reading input file 'control.in'.
 

------------------------------------------------------------
          Reading geometry description geometry.in.
------------------------------------------------------------
 
  Consistency checks for stacksize environment parameter are next.
 
  | Maximum stacksize for task 0: unlimited
  | Maximum stacksize for task 1: unlimited
  | Maximum stacksize for task 2: unlimited
  | Maximum stacksize for task 3: unlimited
  | Maximum stacksize for task 4: unlimited
  | Maximum stacksize for task 5: unlimited
  | Maximum stacksize for task 6: unlimited
  | Maximum stacksize for task 7: unlimited
  | Maximum stacksize for task 8: unlimited
  | Maximum stacksize for task 9: unlimited
  | Maximum stacksize for task 10: unlimited
  | Maximum stacksize for task 11: unlimited
  | Maximum stacksize for task 12: unlimited
  | Maximum stacksize for task 13: unlimited
  | Maximum stacksize for task 14: unlimited
  | Maximum stacksize for task 15: unlimited
  | Maximum stacksize for task 16: unlimited
  | Maximum stacksize for task 17: unlimited
  | Maximum stacksize for task 18: unlimited
  | Maximum stacksize for task 19: unlimited
  | Maximum stacksize for task 20: unlimited
  | Maximum stacksize for task 21: unlimited
  | Maximum stacksize for task 22: unlimited
  | Maximum stacksize for task 23: unlimited
  | Maximum stacksize for task 24: unlimited
  | Maximum stacksize for task 25: unlimited
  | Maximum stacksize for task 26: unlimited
  | Maximum stacksize for task 27: unlimited
  | Maximum stacksize for task 28: unlimited
  | Maximum stacksize for task 29: unlimited
  | Maximum stacksize for task 30: unlimited
  | Maximum stacksize for task 31: unlimited
  | Maximum stacksize for task 32: unlimited
  | Maximum stacksize for task 33: unlimited
  | Maximum stacksize for task 34: unlimited
  | Maximum stacksize for task 35: unlimited
  | Maximum stacksize for task 36: unlimited
  | Maximum stacksize for task 37: unlimited
  | Maximum stacksize for task 38: unlimited
  | Maximum stacksize for task 39: unlimited
  | Maximum stacksize for task 40: unlimited
  | Maximum stacksize for task 41: unlimited
  | Maximum stacksize for task 42: unlimited
  | Maximum stacksize for task 43: unlimited
  | Maximum stacksize for task 44: unlimited
  | Maximum stacksize for task 45: unlimited
  | Maximum stacksize for task 46: unlimited
  | Maximum stacksize for task 47: unlimited
  | Maximum stacksize for task 48: unlimited
  | Maximum stacksize for task 49: unlimited
  | Maximum stacksize for task 50: unlimited
  | Maximum stacksize for task 51: unlimited
  | Maximum stacksize for task 52: unlimited
  | Maximum stacksize for task 53: unlimited
  | Maximum stacksize for task 54: unlimited
  | Maximum stacksize for task 55: unlimited
  | Maximum stacksize for task 56: unlimited
  | Maximum stacksize for task 57: unlimited
  | Maximum stacksize for task 58: unlimited
  | Maximum stacksize for task 59: unlimited
  | Maximum stacksize for task 60: unlimited
  | Maximum stacksize for task 61: unlimited
  | Maximum stacksize for task 62: unlimited
  | Maximum stacksize for task 63: unlimited
  | Maximum stacksize for task 64: unlimited
  | Maximum stacksize for task 65: unlimited
  | Maximum stacksize for task 66: unlimited
  | Maximum stacksize for task 67: unlimited
  | Maximum stacksize for task 68: unlimited
  | Maximum stacksize for task 69: unlimited
  | Maximum stacksize for task 70: unlimited
  | Maximum stacksize for task 71: unlimited
  | Maximum stacksize for task 72: unlimited
  | Maximum stacksize for task 73: unlimited
  | Maximum stacksize for task 74: unlimited
  | Maximum stacksize for task 75: unlimited
  | Maximum stacksize for task 76: unlimited
  | Maximum stacksize for task 77: unlimited
  | Maximum stacksize for task 78: unlimited
  | Maximum stacksize for task 79: unlimited
  | Maximum stacksize for task 80: unlimited
  | Maximum stacksize for task 81: unlimited
  | Maximum stacksize for task 82: unlimited
  | Maximum stacksize for task 83: unlimited
  | Maximum stacksize for task 84: unlimited
  | Maximum stacksize for task 85: unlimited
  | Maximum stacksize for task 86: unlimited
  | Maximum stacksize for task 87: unlimited
  | Maximum stacksize for task 88: unlimited
  | Maximum stacksize for task 89: unlimited
  | Maximum stacksize for task 90: unlimited
  | Maximum stacksize for task 91: unlimited
  | Maximum stacksize for task 92: unlimited
  | Maximum stacksize for task 93: unlimited
  | Maximum stacksize for task 94: unlimited
  | Maximum stacksize for task 95: unlimited
  | Maximum stacksize for task 96: unlimited
  | Maximum stacksize for task 97: unlimited
  | Maximum stacksize for task 98: unlimited
  | Maximum stacksize for task 99: unlimited
  | Maximum stacksize for task 100: unlimited
  | Maximum stacksize for task 101: unlimited
  | Maximum stacksize for task 102: unlimited
  | Maximum stacksize for task 103: unlimited
  | Maximum stacksize for task 104: unlimited
  | Maximum stacksize for task 105: unlimited
  | Maximum stacksize for task 106: unlimited
  | Maximum stacksize for task 107: unlimited
  | Maximum stacksize for task 108: unlimited
  | Maximum stacksize for task 109: unlimited
  | Maximum stacksize for task 110: unlimited
  | Maximum stacksize for task 111: unlimited
  | Maximum stacksize for task 112: unlimited
  | Maximum stacksize for task 113: unlimited
  | Maximum stacksize for task 114: unlimited
  | Maximum stacksize for task 115: unlimited
  | Maximum stacksize for task 116: unlimited
  | Maximum stacksize for task 117: unlimited
  | Maximum stacksize for task 118: unlimited
  | Maximum stacksize for task 119: unlimited
  | Maximum stacksize for task 120: unlimited
  | Maximum stacksize for task 121: unlimited
  | Maximum stacksize for task 122: unlimited
  | Maximum stacksize for task 123: unlimited
  | Maximum stacksize for task 124: unlimited
  | Maximum stacksize for task 125: unlimited
  | Maximum stacksize for task 126: unlimited
  | Maximum stacksize for task 127: unlimited
  | Maximum stacksize for task 128: unlimited
  | Maximum stacksize for task 129: unlimited
  | Maximum stacksize for task 130: unlimited
  | Maximum stacksize for task 131: unlimited
  | Maximum stacksize for task 132: unlimited
  | Maximum stacksize for task 133: unlimited
  | Maximum stacksize for task 134: unlimited
  | Maximum stacksize for task 135: unlimited
  | Maximum stacksize for task 136: unlimited
  | Maximum stacksize for task 137: unlimited
  | Maximum stacksize for task 138: unlimited
  | Maximum stacksize for task 139: unlimited
  | Maximum stacksize for task 140: unlimited
  | Maximum stacksize for task 141: unlimited
  | Maximum stacksize for task 142: unlimited
  | Maximum stacksize for task 143: unlimited
  | Maximum stacksize for task 144: unlimited
  | Maximum stacksize for task 145: unlimited
  | Maximum stacksize for task 146: unlimited
  | Maximum stacksize for task 147: unlimited
  | Maximum stacksize for task 148: unlimited
  | Maximum stacksize for task 149: unlimited
  | Maximum stacksize for task 150: unlimited
  | Maximum stacksize for task 151: unlimited
  | Maximum stacksize for task 152: unlimited
  | Maximum stacksize for task 153: unlimited
  | Maximum stacksize for task 154: unlimited
  | Maximum stacksize for task 155: unlimited
  | Maximum stacksize for task 156: unlimited
  | Maximum stacksize for task 157: unlimited
  | Maximum stacksize for task 158: unlimited
  | Maximum stacksize for task 159: unlimited
  | Current stacksize for task 0: unlimited
  | Current stacksize for task 1: unlimited
  | Current stacksize for task 2: unlimited
  | Current stacksize for task 3: unlimited
  | Current stacksize for task 4: unlimited
  | Current stacksize for task 5: unlimited
  | Current stacksize for task 6: unlimited
  | Current stacksize for task 7: unlimited
  | Current stacksize for task 8: unlimited
  | Current stacksize for task 9: unlimited
  | Current stacksize for task 10: unlimited
  | Current stacksize for task 11: unlimited
  | Current stacksize for task 12: unlimited
  | Current stacksize for task 13: unlimited
  | Current stacksize for task 14: unlimited
  | Current stacksize for task 15: unlimited
  | Current stacksize for task 16: unlimited
  | Current stacksize for task 17: unlimited
  | Current stacksize for task 18: unlimited
  | Current stacksize for task 19: unlimited
  | Current stacksize for task 20: unlimited
  | Current stacksize for task 21: unlimited
  | Current stacksize for task 22: unlimited
  | Current stacksize for task 23: unlimited
  | Current stacksize for task 24: unlimited
  | Current stacksize for task 25: unlimited
  | Current stacksize for task 26: unlimited
  | Current stacksize for task 27: unlimited
  | Current stacksize for task 28: unlimited
  | Current stacksize for task 29: unlimited
  | Current stacksize for task 30: unlimited
  | Current stacksize for task 31: unlimited
  | Current stacksize for task 32: unlimited
  | Current stacksize for task 33: unlimited
  | Current stacksize for task 34: unlimited
  | Current stacksize for task 35: unlimited
  | Current stacksize for task 36: unlimited
  | Current stacksize for task 37: unlimited
  | Current stacksize for task 38: unlimited
  | Current stacksize for task 39: unlimited
  | Current stacksize for task 40: unlimited
  | Current stacksize for task 41: unlimited
  | Current stacksize for task 42: unlimited
  | Current stacksize for task 43: unlimited
  | Current stacksize for task 44: unlimited
  | Current stacksize for task 45: unlimited
  | Current stacksize for task 46: unlimited
  | Current stacksize for task 47: unlimited
  | Current stacksize for task 48: unlimited
  | Current stacksize for task 49: unlimited
  | Current stacksize for task 50: unlimited
  | Current stacksize for task 51: unlimited
  | Current stacksize for task 52: unlimited
  | Current stacksize for task 53: unlimited
  | Current stacksize for task 54: unlimited
  | Current stacksize for task 55: unlimited
  | Current stacksize for task 56: unlimited
  | Current stacksize for task 57: unlimited
  | Current stacksize for task 58: unlimited
  | Current stacksize for task 59: unlimited
  | Current stacksize for task 60: unlimited
  | Current stacksize for task 61: unlimited
  | Current stacksize for task 62: unlimited
  | Current stacksize for task 63: unlimited
  | Current stacksize for task 64: unlimited
  | Current stacksize for task 65: unlimited
  | Current stacksize for task 66: unlimited
  | Current stacksize for task 67: unlimited
  | Current stacksize for task 68: unlimited
  | Current stacksize for task 69: unlimited
  | Current stacksize for task 70: unlimited
  | Current stacksize for task 71: unlimited
  | Current stacksize for task 72: unlimited
  | Current stacksize for task 73: unlimited
  | Current stacksize for task 74: unlimited
  | Current stacksize for task 75: unlimited
  | Current stacksize for task 76: unlimited
  | Current stacksize for task 77: unlimited
  | Current stacksize for task 78: unlimited
  | Current stacksize for task 79: unlimited
  | Current stacksize for task 80: unlimited
  | Current stacksize for task 81: unlimited
  | Current stacksize for task 82: unlimited
  | Current stacksize for task 83: unlimited
  | Current stacksize for task 84: unlimited
  | Current stacksize for task 85: unlimited
  | Current stacksize for task 86: unlimited
  | Current stacksize for task 87: unlimited
  | Current stacksize for task 88: unlimited
  | Current stacksize for task 89: unlimited
  | Current stacksize for task 90: unlimited
  | Current stacksize for task 91: unlimited
  | Current stacksize for task 92: unlimited
  | Current stacksize for task 93: unlimited
  | Current stacksize for task 94: unlimited
  | Current stacksize for task 95: unlimited
  | Current stacksize for task 96: unlimited
  | Current stacksize for task 97: unlimited
  | Current stacksize for task 98: unlimited
  | Current stacksize for task 99: unlimited
  | Current stacksize for task 100: unlimited
  | Current stacksize for task 101: unlimited
  | Current stacksize for task 102: unlimited
  | Current stacksize for task 103: unlimited
  | Current stacksize for task 104: unlimited
  | Current stacksize for task 105: unlimited
  | Current stacksize for task 106: unlimited
  | Current stacksize for task 107: unlimited
  | Current stacksize for task 108: unlimited
  | Current stacksize for task 109: unlimited
  | Current stacksize for task 110: unlimited
  | Current stacksize for task 111: unlimited
  | Current stacksize for task 112: unlimited
  | Current stacksize for task 113: unlimited
  | Current stacksize for task 114: unlimited
  | Current stacksize for task 115: unlimited
  | Current stacksize for task 116: unlimited
  | Current stacksize for task 117: unlimited
  | Current stacksize for task 118: unlimited
  | Current stacksize for task 119: unlimited
  | Current stacksize for task 120: unlimited
  | Current stacksize for task 121: unlimited
  | Current stacksize for task 122: unlimited
  | Current stacksize for task 123: unlimited
  | Current stacksize for task 124: unlimited
  | Current stacksize for task 125: unlimited
  | Current stacksize for task 126: unlimited
  | Current stacksize for task 127: unlimited
  | Current stacksize for task 128: unlimited
  | Current stacksize for task 129: unlimited
  | Current stacksize for task 130: unlimited
  | Current stacksize for task 131: unlimited
  | Current stacksize for task 132: unlimited
  | Current stacksize for task 133: unlimited
  | Current stacksize for task 134: unlimited
  | Current stacksize for task 135: unlimited
  | Current stacksize for task 136: unlimited
  | Current stacksize for task 137: unlimited
  | Current stacksize for task 138: unlimited
  | Current stacksize for task 139: unlimited
  | Current stacksize for task 140: unlimited
  | Current stacksize for task 141: unlimited
  | Current stacksize for task 142: unlimited
  | Current stacksize for task 143: unlimited
  | Current stacksize for task 144: unlimited
  | Current stacksize for task 145: unlimited
  | Current stacksize for task 146: unlimited
  | Current stacksize for task 147: unlimited
  | Current stacksize for task 148: unlimited
  | Current stacksize for task 149: unlimited
  | Current stacksize for task 150: unlimited
  | Current stacksize for task 151: unlimited
  | Current stacksize for task 152: unlimited
  | Current stacksize for task 153: unlimited
  | Current stacksize for task 154: unlimited
  | Current stacksize for task 155: unlimited
  | Current stacksize for task 156: unlimited
  | Current stacksize for task 157: unlimited
  | Current stacksize for task 158: unlimited
  | Current stacksize for task 159: unlimited
 
  Consistency checks for the contents of control.in are next.
 
  MPI_IN_PLACE appears to work with this MPI implementation.
  | Keeping use_mpi_in_place .true. (see manual).
  Target number of points in a grid batch is not set. Defaulting to  100
  Method for grid partitioning is not set. Defaulting to parallel hash+maxmin partitioning.
  Batch size limit is not set. Defaulting to    200
  By default, will store active basis functions for each batch.
  If in need of memory, prune_basis_once .false. can be used to disable this option.
  communication_type for Hartree potential was not specified.
  Defaulting to calc_hartree .
  Defaulting to Pulay charge density mixer.
  Pulay mixer: Number of relevant iterations not set.
  Defaulting to    8 iterations.
  Pulay mixer: Number of initial linear mixing iterations not set.
  Defaulting to    0 iterations.
  Work space size for distributed Hartree potential not set.
  Defaulting to   0.200000E+03 MB.
  Mixing parameter for charge density mixing has not been set.
  Using default: charge_mix_param =     0.0500.
  The mixing parameter will be adjusted in iteration number     2 of the first full s.c.f. cycle only.
  Algorithm-dependent basis array size parameters:
  | n_max_pulay                         :        8
  Maximum number of self-consistency iterations not provided.
  Presetting  1000 iterations.
  Presetting      1001 iterations before the initial mixing cycle
  is restarted anyway using the sc_init_iter criterion / keyword.
  Presetting a factor      1.000 between actual scf density residual
  and density convergence criterion sc_accuracy_rho below which sc_init_iter
  takes no effect.
 * No s.c.f. convergence criteria (sc_accuracy_*) were provided in control.in.
 * The run will proceed with a reasonable default guess, but please check whether.
 * the s.c.f. cycles seem to take too much or too little time.
  No maximum number of relaxation steps, defaulting to     1000
  Default initial Hessian is Lindh matrix (thres = 15.00) plus  0.200000E+01 eV/A^2 times unity.
  No maximum energy tolerance for TRM/BFGS moves, defaulting to   0.100000E-02
  Maximum energy tolerance by which TRM/BFGS trajectory may increase over multiple steps:   0.300000E-02
  No harmonic length scale. Defaulting to   0.250000E-01 A.
  No trust radius initializer. Defaulting to   0.200000E+00 A.
  Forces evaluation will include force correction term due to incomplete self-consistency (default).
 * Notice: The s.c.f. convergence criterion sc_accuracy_rho was not provided.
 * We used to stop in this case, and ask the user to provide reasonable
 * scf convergence criteria. However, this led some users to employ criteria
 * that led to extremely long run times, e.g., for simple relaxation.
 * We now preset a default value for sc_accuracy_rho if it is not set.
 * You may still wish to check if this setting is too tight or too loose for your needs.
 * Based on n_atoms and forces and force-correction status, FHI-aims chose sc_accuracy_rho =  0.282843E-04 .
  Force calculation: scf convergence accuracy of forces not set.
  Defaulting to 'sc_accuracy_forces not_checked'.
  Handling of forces: Unphysical translation and rotation will be removed from forces.
  No accuracy limit for integral partition fn. given. Defaulting to  0.1000E-14.
  No threshold value for u(r) in integrations given. Defaulting to  0.1000E-05.
  No occupation type (smearing scheme) given. Defaulting to Gaussian broadening, width =  0.1000E-01 eV.
  The width will be adjusted in iteration number     2 of the first full s.c.f. cycle only.
  S.C.F. convergence parameters will be adjusted in iteration number     2 of the first full s.c.f. cycle only.
  No accuracy for occupation numbers given. Defaulting to  0.1000E-12.
  No threshold value for occupation numbers given. Defaulting to  0.0000E+00.
  No accuracy for fermi level given. Defaulting to  0.1000E-19.
  Maximum # of iterations to find E_F not set. Defaulting to  200.
  Preferred method for the eigenvalue solver ('KS_method') not specified in 'control.in'.
  Calling BLACS routine to test compilation state
  Since ScaLAPACK support is enabled, defaulting to ELPA (via ELSI).
  Will not use alltoall communication since running on < 1024 CPUs.
  Threshold for basis singularities not set.
  Default threshold for basis singularities:  0.1000E-04
  partition_type (choice of integration weights) for integrals was not specified.
  | Using a version of the partition function of Stratmann and coworkers ('stratmann_sparse').
  | At each grid point, the set of atoms used to build the partition table is smoothly restricted to
  | only those atoms whose free-atom density would be non-zero at that grid point.
  Partitioning for Hartree potential was not defined. Using partition_type for integrals.
  | Adjusted default value of keyword multip_moments_threshold to:       0.10000000E-11
  | This value may affect high angular momentum components of the Hartree potential in periodic systems.
  Angular momentum expansion for Kerker preconditioner not set explicitly.
  | Using default value of   0
  No explicit requirement for turning off preconditioner.
  | By default, it will be turned off when the charge convergence reaches
  | sc_accuracy_rho  =   0.282843E-04
  No special mixing parameter while Kerker preconditioner is on.
  Using default: charge_mix_param =     0.0500.
  No q(lm)/r^(l+1) cutoff set for long-range Hartree potential.
  | Using default value of  0.100000E-09 .
  | Verify using the multipole_threshold keyword.
  Defaulting to new monopole extrapolation.
  Density update method: automatic selection selected.
  Using density matrix based charge density update.
  Using density matrix based charge density update.
  Using packed matrix style: index .
  Geometry relaxation: A file "geometry.in.next_step" is written out by default after each step.
  | This file contains the geometry of the current relaxation step as well as
  | the current Hessian matrix needed to restart the relaxation algorithm.
  | If you do not want part or all of this information, use the keywords
  | "write_restart_geometry" or "hessian_to_restart_geometry" to switch the output off.
  Defaulting to use time-reversal symmetry for k-point grid.
  Charge integration errors on the 3D integration grid will be compensated
  by explicit normalization and distribution of residual charges.
  Use the "compensate_multipole_errors" flag to change this behaviour.
 
  Consistency checks for the contents of geometry.in are next.
 

  Range separation radius for Ewald summation (hartree_convergence_parameter):      5.00000000 bohr.
  Number of empty states per atom not set in control.in - providing a guess from actual geometry.
  | Total number of empty states used during s.c.f. cycle:      288
  If you use a very high smearing, use empty_states (per atom!) in control.in to increase this value.

  Structure-dependent array size parameters: 
  | Maximum number of distinct radial functions  :       57
  | Maximum number of basis functions            :     3175
  | Number of Kohn-Sham states (occupied + empty):     1214
------------------------------------------------------------

------------------------------------------------------------
          Preparing all fixed parts of the calculation.
------------------------------------------------------------
  Determining machine precision:
    2.225073858507201E-308
  Setting up grids for atomic and cluster calculations.

  Creating wave function, potential, and density for free atoms.

  Species: S

  List of occupied orbitals and eigenvalues:
    n    l              occ      energy [Ha]    energy [eV]
    1    0           2.0000       -88.680731     -2413.1255
    2    0           2.0000        -7.781719      -211.7513
    3    0           2.0000        -0.633662       -17.2428
    2    1           6.0000        -5.751976      -156.5192
    3    1           4.0000        -0.257086        -6.9957


  Species: Mo

  List of occupied orbitals and eigenvalues:
    n    l              occ      energy [Ha]    energy [eV]
    1    0           2.0000      -746.930910    -20325.0242
    2    0           2.0000      -103.546675     -2817.6484
    3    0           2.0000       -17.576954      -478.2933
    4    0           2.0000        -2.371114       -64.5213
    5    0           1.0400        -0.146468        -3.9856
    2    1           6.0000       -92.543986     -2518.2500
    3    1           6.0000       -13.988492      -380.6462
    4    1           6.0000        -1.417556       -38.5737
    3    2          10.0000        -8.160062      -222.0466
    4    2           5.0000        -0.136655        -3.7186


  Species: W

  List of occupied orbitals and eigenvalues:
    n    l              occ      energy [Ha]    energy [eV]
    1    0           2.0000     -2764.899999    -75236.7570
    2    0           2.0000      -447.822848    -12185.8797
    3    0           2.0000      -101.923634     -2773.4832
    4    0           2.0000       -20.945301      -569.9506
    5    0           2.0000        -2.899582       -78.9016
    6    0           2.0000        -0.207066        -5.6345
    2    1           6.0000      -391.021390    -10640.2334
    3    1           6.0000       -85.417793     -2324.3364
    4    1           6.0000       -15.562838      -423.4864
    5    1           6.0000        -1.582233       -43.0547
    3    2          10.0000       -66.517936     -1810.0451
    4    2          10.0000        -8.758436      -238.3292
    5    2           4.0000        -0.161873        -4.4048
    4    3          14.0000        -1.221948       -33.2509


  Species: Se

  List of occupied orbitals and eigenvalues:
    n    l              occ      energy [Ha]    energy [eV]
    1    0           2.0000      -466.337810    -12689.6975
    2    0           2.0000       -59.202598     -1610.9847
    3    0           2.0000        -7.847116      -213.5309
    4    0           2.0000        -0.634372       -17.2621
    2    1           6.0000       -52.061107     -1416.6548
    3    1           6.0000        -5.620941      -152.9536
    4    1           4.0000        -0.238469        -6.4891
    3    2          10.0000        -1.951949       -53.1152


  Adding cutoff potential to free-atom effective potential.
  Creating fixed part of basis set: Ionic, confined, hydrogenic.
 
  S                    ion:

  List of free ionic orbitals and eigenvalues:
    n    l      energy [Ha]    energy [eV]
    1    0       -89.703778     -2440.9640
    2    0        -8.775428      -238.7916
    3    0        -1.470343       -40.0101
    2    1        -6.747660      -183.6132
    3    1        -1.048627       -28.5346


  List of ionic basis orbitals and eigenvalues:
    n    l      energy [Ha]    energy [eV]    outer radius [A]
    3    2        -0.495605       -13.4861       5.386362
    3    0        -1.470336       -40.0099       3.967934

 
  S                    hydrogenic:
 
  List of hydrogenic basis orbitals: 
    n    l      effective z      eigenvalue [eV]  inner max. [A]     outer max. [A]     outer radius [A]   
    2    1         1.800000       -11.0118           1.168531           1.168531           5.452614
    4    3         7.000000       -41.6672           1.212182           1.212182           5.066981
    4    2         6.200000       -32.6848           0.582121           1.814567           5.386362
    5    4        10.800000       -63.4785           1.227092           1.227092           4.766538
 
 
  Mo                   ion:

  List of free ionic orbitals and eigenvalues:
    n    l      energy [Ha]    energy [eV]
    1    0      -747.638524    -20344.2793
    2    0      -104.242979     -2836.5958
    3    0       -18.270390      -497.1626
    4    0        -3.056260       -83.1651
    5    0        -0.653675       -17.7874
    2    1       -93.240001     -2537.1895
    3    1       -14.681836      -399.5131
    4    1        -2.097321       -57.0710
    3    2        -8.853442      -240.9144
    4    2        -0.772128       -21.0107


  List of ionic basis orbitals and eigenvalues:
    n    l      energy [Ha]    energy [eV]    outer radius [A]
    5    1        -0.468114       -12.7380       5.451202
    5    0        -0.653623       -17.7860       5.384966

 
  Mo                   hydrogenic:
 
  List of hydrogenic basis orbitals: 
    n    l      effective z      eigenvalue [eV]  inner max. [A]     outer max. [A]     outer radius [A]   
    4    3         8.400000       -60.0010           1.008827           1.008827           4.482748
    3    2         2.800000       -11.8048           1.685796           1.685796           5.451202
    5    4        12.000000       -78.3687           1.098959           1.098959           4.428280
 
 
  W                    ion:

  List of free ionic orbitals and eigenvalues:
    n    l      energy [Ha]    energy [eV]
    1    0     -2765.664016    -75257.5469
    2    0      -448.543169    -12205.4806
    3    0      -102.635476     -2792.8534
    4    0       -21.655379      -589.2728
    5    0        -3.604872       -98.0936
    6    0        -0.752243       -20.4696
    2    1      -391.740682    -10659.8063
    3    1       -86.129333     -2343.6984
    4    1       -16.272893      -442.8080
    5    1        -2.280103       -62.0448
    3    2       -67.229405     -1829.4052
    4    2        -9.468448      -257.6496
    5    2        -0.806537       -21.9470
    4    3        -1.931058       -52.5468


  List of ionic basis orbitals and eigenvalues:
    n    l      energy [Ha]    energy [eV]    outer radius [A]
    6    1        -0.508246       -13.8301       5.434360
    6    0        -0.752227       -20.4691       5.368330

 
  W                    hydrogenic:
 
[...]
  ------------------------------------ 

------------------------------------------------------------
  | Chemical Potential                          :    -4.10965455 eV

  Writing energy levels:
  | Potential vacuum level, "upper" slab surface:    -0.04336236 eV
  | Potential vacuum level, "lower" slab surface:    -0.04336236 eV
  | Work function ("upper" slab surface)        :     4.06629219 eV
  | Work function ("lower" slab surface)        :     4.06629219 eV
  | VBM (reference: upper vacuum level)         :     4.14541840 eV
  | CBM (reference: upper vacuum level)         :     4.04634734 eV
  Relaxation / MD: End force evaluation.       :  max(cpu_time)    wall_clock(cpu1)
  | Time for this force evaluation              :      139.994 s         140.103 s

------------------------------------------------------------
  Geometry optimization: Attempting to predict improved coordinates.

  Removing unitary transformations (pure translations, rotations) from forces on atoms.
  Atomic forces before filtering:
  | Net force on center of mass :   0.435562E-19  0.396361E-17 -0.490007E-19 eV/A
  Atomic forces after filtering:
  | Net force on center of mass :   0.435562E-19  0.217781E-19 -0.272226E-19 eV/A
  Net remaining forces (excluding translations, rotations) in present geometry:
  || Forces on atoms   || =   0.163133E-03 eV/A.
  Maximum force component is  0.163133E-03 eV/A.
  Present geometry is converged.

------------------------------------------------------------
  Final atomic structure:
                         x [A]             y [A]             z [A]
  lattice_vector        15.76960250        0.00000000        0.00000000
  lattice_vector        -7.88732950       13.65525595        0.00000000
  lattice_vector         0.00000000        0.00000000       99.30554027

            atom        -3.94057107       -5.91679817       50.00000060  Mo
            atom        -2.36371316       -5.00649328       48.43550215  S
            atom        -2.36371285       -5.00649222       51.56449678  S
            atom        -5.51803840       -3.18574126       49.99999936  Mo
            atom        -3.94117864       -2.27543890       48.43550150  S
            atom        -3.94117833       -2.27543903       51.56449659  S
            atom        -7.09550353       -0.45469353       49.99999917  Mo
            atom        -5.51864349        0.45560886       48.43550193  S
            atom        -5.51864353        0.45560839       51.56449656  S
            atom        -8.67296853        2.27635302       49.99999926  Mo
            atom        -7.09611046        3.18666430       48.43550376  S
            atom        -7.09611089        3.18666376       51.56449541  S
            atom       -10.25043506        5.00740428       50.00000062  Mo
            atom        -8.67357994        5.91771459       48.43550496  S
            atom        -8.67357987        5.91771480       51.56449530  S
            atom        -0.78664966       -5.91679499       50.00000013  Mo
            atom         0.79020719       -5.00648721       48.43550414  S
            atom         0.79020673       -5.00648708       51.56449622  S
            atom        -2.36411443       -3.18574692       49.99999865  Mo
            atom        -0.78726062       -2.27543944       48.43550109  S
            atom        -0.78726150       -2.27544003       51.56449793  S
            atom        -3.94157836       -0.45469431       49.99999907  Mo
            atom        -2.36472327        0.45560926       48.43550020  S
            atom        -2.36472387        0.45560842       51.56450000  S
            atom        -5.51904663        2.27635635       49.99999949  Mo
            atom        -3.94218908        3.18666312       48.43550385  S
            atom        -3.94218973        3.18666278       51.56449662  S
            atom        -7.09651179        5.00740890       50.00000027  Mo
            atom        -5.51965272        5.91771517       48.43550526  S
            atom        -5.51965303        5.91771515       51.56449561  S
            atom         2.36727263       -5.91678994       50.00000056  Mo
            atom         3.94412961       -5.00648949       48.43550179  S
            atom         3.94412976       -5.00648968       51.56449887  S
            atom         0.78980511       -3.18573796       50.00000015  Mo
            atom         2.36666424       -2.27544000       48.43550178  S
            atom         2.36666390       -2.27544017       51.56449904  S
            atom        -0.78765845       -0.45469142       50.00000003  Mo
            atom         0.78919659        0.45561240       48.43550034  S
            atom         0.78919621        0.45561290       51.56449971  S
            atom        -2.36512316        2.27635257       50.00000061  Mo
            atom        -0.78826826        3.18666254       48.43550152  S
            atom        -0.78826757        3.18666211       51.56449889  S
            atom        -3.94259168        5.00740584       50.00000062  Mo
            atom        -2.36573431        5.91771610       48.43550445  S
            atom        -2.36573445        5.91771638       51.56449632  S
            atom         5.52119170       -5.91679436       50.00000028  Mo
            atom         7.09804917       -5.00648991       48.43550174  S
            atom         7.09804959       -5.00648921       51.56449787  S
            atom         3.94372481       -3.18574324       50.00000067  Mo
            atom         5.52058245       -2.27544053       48.43550045  S
            atom         5.52058332       -2.27544090       51.56449973  S
            atom         2.36626041       -0.45468978       50.00000074  Mo
            atom         3.94312023        0.45561113       48.43549993  S
            atom         3.94312046        0.45561146       51.56450069  S
            atom         0.78879492        2.27635805       49.99999937  Mo
            atom         2.36565251        3.18666411       48.43550224  S
            atom         2.36565230        3.18666344       51.56449820  S
            atom        -0.78866984        5.00740531       50.00000063  Mo
            atom         0.78818589        5.91771620       48.43550350  S
            atom         0.78818595        5.91771700       51.56449760  S
            atom         8.67511100       -5.91679378       49.99999979  Mo
            atom        10.25196930       -5.00648996       48.43550292  S
            atom        10.25196888       -5.00648939       51.56449670  S
            atom         7.09764664       -3.18574312       49.99999921  Mo
            atom         8.67450379       -2.27543961       48.43550042  S
            atom         8.67450382       -2.27543957       51.56449806  S
            atom         5.52017878       -0.45469782       50.00000065  Mo
            atom         7.09703433        0.45561087       48.43550053  S
            atom         7.09703512        0.45561137       51.56449887  S
            atom         3.94271423        2.27635176       50.00000012  Mo
            atom         5.51957236        3.18666202       48.43550197  S
            atom         5.51957295        3.18666146       51.56449771  S
            atom         2.36524811        5.00740866       50.00000105  Mo
            atom         3.94210790        5.91771619       48.43550303  S
            atom         3.94210821        5.91771638       51.56449818  S

  Fractional coordinates:
                         L1                L2                L3
       atom_frac        -0.46660256       -0.43329823        0.50349659  Mo
       atom_frac        -0.33326670       -0.36663489        0.48774219  S
       atom_frac        -0.33326664       -0.36663481        0.51925096  S
       atom_frac        -0.46660244       -0.23329781        0.50349657  Mo
       atom_frac        -0.33326655       -0.16663466        0.48774219  S
       atom_frac        -0.33326654       -0.16663467        0.51925095  S
       atom_frac        -0.46660252       -0.03329806        0.50349657  Mo
       atom_frac        -0.33326661        0.03336509        0.48774219  S
       atom_frac        -0.33326663        0.03336506        0.51925095  S
       atom_frac        -0.46660263        0.16670160        0.50349657  Mo
       atom_frac        -0.33326653        0.23336540        0.48774221  S
       atom_frac        -0.33326657        0.23336536        0.51925094  S
       atom_frac        -0.46660267        0.36670161        0.50349659  Mo
       atom_frac        -0.33326679        0.43336534        0.48774222  S
       atom_frac        -0.33326677        0.43336535        0.51925094  S
       atom_frac        -0.26660239       -0.43329799        0.50349658  Mo
       atom_frac        -0.13326648       -0.36663445        0.48774221  S
       atom_frac        -0.13326651       -0.36663444        0.51925095  S
       atom_frac        -0.26660243       -0.23329822        0.50349657  Mo
       atom_frac        -0.13326673       -0.16663470        0.48774218  S
       atom_frac        -0.13326681       -0.16663474        0.51925097  S
       atom_frac        -0.26660225       -0.03329812        0.50349657  Mo
       atom_frac        -0.13326662        0.03336512        0.48774218  S
       atom_frac        -0.13326669        0.03336506        0.51925099  S
       atom_frac        -0.26660242        0.16670184        0.50349658  Mo
       atom_frac        -0.13326651        0.23336532        0.48774221  S
       atom_frac        -0.13326657        0.23336529        0.51925095  S
       atom_frac        -0.26660233        0.36670194        0.50349658  Mo
       atom_frac        -0.13326634        0.43336538        0.48774223  S
       atom_frac        -0.13326636        0.43336538        0.51925094  S
       atom_frac        -0.06660209       -0.43329762        0.50349659  Mo
       atom_frac         0.06673355       -0.36663461        0.48774219  S
       atom_frac         0.06673356       -0.36663463        0.51925098  S
       atom_frac        -0.06660216       -0.23329757        0.50349658  Mo
       atom_frac         0.06673352       -0.16663474        0.48774219  S
       atom_frac         0.06673350       -0.16663475        0.51925098  S
       atom_frac        -0.06660219       -0.03329791        0.50349658  Mo
       atom_frac         0.06673346        0.03336535        0.48774218  S
       atom_frac         0.06673345        0.03336539        0.51925099  S
       atom_frac        -0.06660237        0.16670157        0.50349659  Mo
       atom_frac         0.06673349        0.23336527        0.48774219  S
       atom_frac         0.06673351        0.23336524        0.51925098  S
       atom_frac        -0.06660246        0.36670172        0.50349659  Mo
       atom_frac         0.06673356        0.43336545        0.48774222  S
       atom_frac         0.06673356        0.43336547        0.51925095  S
       atom_frac         0.13339766       -0.43329795        0.50349658  Mo
       atom_frac         0.26673348       -0.36663464        0.48774219  S
       atom_frac         0.26673353       -0.36663459        0.51925097  S
       atom_frac         0.13339759       -0.23329795        0.50349659  Mo
       atom_frac         0.26673336       -0.16663478        0.48774218  S
       atom_frac         0.26673340       -0.16663480        0.51925099  S
       atom_frac         0.13339777       -0.03329779        0.50349659  Mo
       atom_frac         0.26673361        0.03336526        0.48774217  S
       atom_frac         0.26673364        0.03336528        0.51925100  S
       atom_frac         0.13339767        0.16670197        0.50349657  Mo
       atom_frac         0.26673356        0.23336539        0.48774220  S
       atom_frac         0.26673352        0.23336534        0.51925097  S
       atom_frac         0.13339760        0.36670168        0.50349659  Mo
       atom_frac         0.26673355        0.43336545        0.48774221  S
       atom_frac         0.26673358        0.43336551        0.51925096  S
       atom_frac         0.33339760       -0.43329790        0.50349658  Mo
       atom_frac         0.46673345       -0.36663465        0.48774220  S
       atom_frac         0.46673345       -0.36663461        0.51925096  S
       atom_frac         0.33339768       -0.23329794        0.50349657  Mo
       atom_frac         0.46673345       -0.16663471        0.48774218  S
       atom_frac         0.46673345       -0.16663471        0.51925097  S
       atom_frac         0.33339734       -0.03329837        0.50349659  Mo
       atom_frac         0.46673319        0.03336524        0.48774218  S
       atom_frac         0.46673326        0.03336528        0.51925098  S
       atom_frac         0.33339737        0.16670151        0.50349658  Mo
       atom_frac         0.46673344        0.23336524        0.48774219  S
       atom_frac         0.46673346        0.23336519        0.51925097  S
       atom_frac         0.33339756        0.36670193        0.50349659  Mo
       atom_frac         0.46673364        0.43336545        0.48774220  S
       atom_frac         0.46673367        0.43336547        0.51925097  S
------------------------------------------------------------

------------------------------------------------------------------------------
  Final output of selected total energy values:

  The following output summarizes some interesting total energy values
  at the end of a run (AFTER all relaxation, molecular dynamics, etc.).

  | Total energy of the DFT / Hartree-Fock s.c.f. calculation      :       -3331385.846664066 eV
  | Final zero-broadening corrected energy (caution - metals only) :       -3331385.853643163 eV
  | For reference only, the value of 1 Hartree used in FHI-aims is :             27.211384500 eV
  | For reference only, the overall average (free atom contribution
  | + realspace contribution) of the electrostatic potential after
  | s.c.f. convergence is                                          :             -1.134524488 eV

  Before relying on these values, please be sure to understand exactly which
  total energy value is referred to by a given number. Different objects may
  all carry the same name 'total energy'. Definitions:

  Total energy of the DFT / Hartree-Fock s.c.f. calculation:
  | Note that this energy does not include ANY quantities calculated after the
  | s.c.f. cycle, in particular not ANY RPA, MP2, etc. many-body perturbation terms.

  Final zero-broadening corrected energy:
  | For metallic systems only, a broadening of the occupation numbers at the Fermi
  | level can be extrapolated back to zero broadening by an electron-gas inspired
  | formula. For all systems that are not real metals, this value can be
  | meaningless and should be avoided.

------------------------------------------------------------------------------
  Methods described in the following list of references were used in this FHI-aims run.
  If you publish the results, please make sure to cite these reference if they apply.
  FHI-aims is an academic code, and for our developers (often, Ph.D. students
  and postdocs), scientific credit in the community is essential.
  Thank you for helping us!

  For any use of FHI-aims, please cite:

    Volker Blum, Ralf Gehrke, Felix Hanke, Paula Havu, Ville Havu,
    Xinguo Ren, Karsten Reuter, and Matthias Scheffler
    'Ab initio molecular simulations with numeric atom-centered orbitals'
    Computer Physics Communications 180, 2175-2196 (2009)
    http://doi.org/10.1016/j.cpc.2009.06.022


  The provided symmetry information was generated with SPGlib:

    Atsushi Togo, Yusuke Seto, Dimitar Pashov
    SPGlib 1.7.3 obtained from http://spglib.sourceforge.net
    Copyright (C) 2008 Atsushi Togo


  The ELSI infrastructure was used in your run to solve the Kohn-Sham electronic structure.
  Please check out http://elsi-interchange.org to learn more.
  If scalability is important for your project, please acknowledge ELSI by citing:

    V. W-z. Yu, F. Corsetti, A. Garcia, W. P. Huhn, M. Jacquelin, W. Jia,
    B. Lange, L. Lin, J. Lu, W. Mi, A. Seifitokaldani, A. Vazquez-Mayagoitia,
    C. Yang, H. Yang, and V. Blum
    'ELSI: A unified software interface for Kohn-Sham electronic structure solvers'
    Computer Physics Communications 222, 267-285 (2018).
    http://doi.org/10.1016/j.cpc.2017.09.007


  For the real-space grid partitioning and parallelization used in this calculation, please cite:

    Ville Havu, Volker Blum, Paula Havu, and Matthias Scheffler,
    'Efficient O(N) integration for all-electron electronic structure calculation'
    'using numerically tabulated basis functions'
    Journal of Computational Physics 228, 8367-8379 (2009).
    http://doi.org/10.1016/j.jcp.2009.08.008

  Of course, there are many other important community references, e.g., those cited in the
  above references. Our list is limited to references that describe implementations in the
  FHI-aims code. The reason is purely practical (length of this list) - please credit others as well.

------------------------------------------------------------
          Leaving FHI-aims.
          Date     :  20220929, Time     :  215658.219

          Computational steps:
          | Number of self-consistency cycles          :           60
          | Number of SCF (re)initializations          :            5
          | Number of relaxation steps                 :            4

          Detailed time accounting                     :  max(cpu_time)    wall_clock(cpu1)
          | Total time                                  :     1129.312 s        1130.379 s
          | Preparation time                            :        1.084 s           1.084 s
          | Boundary condition initalization            :        6.365 s           6.366 s
          | Grid partitioning                           :       28.097 s          28.104 s
          | Preloading free-atom quantities on grid     :        4.278 s           4.277 s
          | Free-atom superposition energy              :        0.574 s           0.575 s
          | Total time for integrations                 :      163.559 s         163.548 s
          | Total time for solution of K.-S. equations  :      166.834 s         166.888 s
          | Total time for EV reorthonormalization      :        2.931 s           2.884 s
          | Total time for density & force components   :      509.159 s         509.345 s
          | Total time for mixing & preconditioning     :       44.793 s          44.798 s
          | Total time for Hartree multipole update     :        0.898 s           0.898 s
          | Total time for Hartree multipole sum        :      140.806 s         140.851 s
          | Total time for total energy evaluation      :        0.120 s           0.083 s
          | Total time NSC force correction             :       18.210 s          18.221 s
          | Total time for scaled ZORA corrections      :        0.000 s           0.000 s
          | Total time for vdW correction               :       38.079 s          38.106 s

          Partial memory accounting:
          | Residual value for overall tracked memory usage across tasks:     0.000000 MB (should be 0.000000 MB)
          | Peak values for overall tracked memory usage:
          |   Minimum:      196.563 MB (on task 127 after allocating temp_ham_ovlp)
          |   Maximum:      198.112 MB (on task   0 after allocating temp_ham_ovlp)
          |   Average:      197.503 MB
          | Largest tracked array allocation:
          |   Minimum:       47.250 MB (overlap_matrix on task   0)
          |   Maximum:       47.250 MB (overlap_matrix on task   0)
          |   Average:       47.250 MB
          Note:  These values currently only include a subset of arrays which are explicitly tracked.
          The "true" memory usage will be greater.

          Have a nice day.
------------------------------------------------------------
