------------------------------------------------------------
          Invoking FHI-aims ...

          When using FHI-aims, please cite the following reference:

            Volker Blum, Ralf Gehrke, Felix Hanke, Paula Havu,
            Ville Havu, Xinguo Ren, Karsten Reuter, and Matthias Scheffler,
            'Ab Initio Molecular Simulations with Numeric Atom-Centered Orbitals',
            Computer Physics Communications 180, 2175-2196 (2009)

          In addition, many other developments in FHI-aims are likely important for
          your particular application. A partial list of references is given at the end of
          this file. Thank you for giving credit to the authors of these developments.

          For any questions about FHI-aims, please visit our slack channel at

            https://fhi-aims.slack.com

          and our main development and support site at

            https://aims-git.rz-berlin.mpg.de .

          The latter site, in particular, has a wiki to collect information, as well
          as an issue tracker to log discussions, suggest improvements, and report issues
          or bugs. https://aims-git.rz-berlin.mpg.de is also the main development site
          of the project and all new and updated code versions can be obtained there.
          Please send an email to aims-coordinators@fhi-berlin.mpg.de and we will add
          you to these sites. They are for you and everyone is welcome there.

------------------------------------------------------------



  Date     :  20220930, Time     :  163129.982
  Time zero on CPU 1             :   0.326342000000000E+01  s.
  Internal wall clock time zero  :           433787489.982  s.

  FHI-aims created a unique identifier for this run for later identification
  aims_uuid : 6E8ED8A3-745C-4D57-A159-EDC88359AFAA

  Build configuration of the current instance of FHI-aims
  -------------------------------------------------------
  FHI-aims version      : 220117
  Commit number         : 0c0e6afe2
  CMake host system     : Linux-5.3.18-24.99-default
  CMake version         : 3.22.0
  Fortran compiler      : /mpcdf/soft/SLE_15/packages/x86_64/intel_oneapi/2021.4/mpi/2021.4.0/bin/mpiifort (Intel) version 2021.4.0.20210910
  Fortran compiler flags: -O3 -ip -fp-model precise
  C compiler            : /mpcdf/soft/SLE_15/packages/x86_64/intel/2021.4.0/bin/icc (Intel) version 2021.4.0.20210910
  C compiler flags      : -O3 -ip -fp-model precise
  C++ compiler          : /mpcdf/soft/SLE_15/packages/x86_64/intel/2021.4.0/bin/icpc (Intel) version 2021.4.0.20210910
  C++ compiler flags    : -O3 -ip -fp-model precise
  Using MPI
  Using ScaLAPACK
  Using LibXC
  Using i-PI
  Using RLSY
  Linking against: /mpcdf/soft/SLE_15/packages/x86_64/intel_oneapi/2021.4/mkl/latest/lib/intel64/libmkl_intel_lp64.so
                   /mpcdf/soft/SLE_15/packages/x86_64/intel_oneapi/2021.4/mkl/latest/lib/intel64/libmkl_sequential.so
                   /mpcdf/soft/SLE_15/packages/x86_64/intel_oneapi/2021.4/mkl/latest/lib/intel64/libmkl_core.so
                   /mpcdf/soft/SLE_15/packages/x86_64/intel_oneapi/2021.4/mkl/latest/lib/intel64/libmkl_blacs_intelmpi_lp64.so
                   /mpcdf/soft/SLE_15/packages/x86_64/intel_oneapi/2021.4/mkl/latest/lib/intel64/libmkl_scalapack_lp64.so

  Using      216 parallel tasks.
  Task        0 on host ravg1110 reporting.
  Task        1 on host ravg1110 reporting.
  Task        2 on host ravg1110 reporting.
  Task        3 on host ravg1110 reporting.
  Task        4 on host ravg1110 reporting.
  Task        5 on host ravg1110 reporting.
  Task        6 on host ravg1110 reporting.
  Task        7 on host ravg1110 reporting.
  Task        8 on host ravg1110 reporting.
  Task        9 on host ravg1110 reporting.
  Task       10 on host ravg1110 reporting.
  Task       11 on host ravg1110 reporting.
  Task       12 on host ravg1110 reporting.
  Task       13 on host ravg1110 reporting.
  Task       14 on host ravg1110 reporting.
  Task       15 on host ravg1110 reporting.
  Task       16 on host ravg1110 reporting.
  Task       17 on host ravg1110 reporting.
  Task       18 on host ravg1110 reporting.
  Task       19 on host ravg1110 reporting.
  Task       20 on host ravg1110 reporting.
  Task       21 on host ravg1110 reporting.
  Task       22 on host ravg1110 reporting.
  Task       23 on host ravg1110 reporting.
  Task       24 on host ravg1110 reporting.
  Task       25 on host ravg1110 reporting.
  Task       26 on host ravg1110 reporting.
  Task       27 on host ravg1110 reporting.
  Task       28 on host ravg1110 reporting.
  Task       29 on host ravg1110 reporting.
  Task       30 on host ravg1110 reporting.
  Task       31 on host ravg1110 reporting.
  Task       32 on host ravg1110 reporting.
  Task       33 on host ravg1110 reporting.
  Task       34 on host ravg1110 reporting.
  Task       35 on host ravg1110 reporting.
  Task       36 on host ravg1110 reporting.
  Task       37 on host ravg1110 reporting.
  Task       38 on host ravg1110 reporting.
  Task       39 on host ravg1110 reporting.
  Task       40 on host ravg1110 reporting.
  Task       41 on host ravg1110 reporting.
  Task       42 on host ravg1110 reporting.
  Task       43 on host ravg1110 reporting.
  Task       44 on host ravg1110 reporting.
  Task       45 on host ravg1110 reporting.
  Task       46 on host ravg1110 reporting.
  Task       47 on host ravg1110 reporting.
  Task       48 on host ravg1110 reporting.
  Task       49 on host ravg1110 reporting.
  Task       50 on host ravg1110 reporting.
  Task       51 on host ravg1110 reporting.
  Task       52 on host ravg1110 reporting.
  Task       53 on host ravg1110 reporting.
  Task       54 on host ravg1110 reporting.
  Task       55 on host ravg1110 reporting.
  Task       56 on host ravg1110 reporting.
  Task       57 on host ravg1110 reporting.
  Task       58 on host ravg1110 reporting.
  Task       59 on host ravg1110 reporting.
  Task       60 on host ravg1110 reporting.
  Task       61 on host ravg1110 reporting.
  Task       62 on host ravg1110 reporting.
  Task       63 on host ravg1110 reporting.
  Task       64 on host ravg1110 reporting.
  Task       65 on host ravg1110 reporting.
  Task       66 on host ravg1110 reporting.
  Task       67 on host ravg1110 reporting.
  Task       68 on host ravg1110 reporting.
  Task       69 on host ravg1110 reporting.
  Task       70 on host ravg1110 reporting.
  Task       71 on host ravg1110 reporting.
  Task       72 on host ravg1113 reporting.
  Task       73 on host ravg1113 reporting.
  Task       74 on host ravg1113 reporting.
  Task       75 on host ravg1113 reporting.
  Task       76 on host ravg1113 reporting.
  Task       77 on host ravg1113 reporting.
  Task       78 on host ravg1113 reporting.
  Task       79 on host ravg1113 reporting.
  Task       80 on host ravg1113 reporting.
  Task       81 on host ravg1113 reporting.
  Task       82 on host ravg1113 reporting.
  Task       83 on host ravg1113 reporting.
  Task       84 on host ravg1113 reporting.
  Task       85 on host ravg1113 reporting.
  Task       86 on host ravg1113 reporting.
  Task       87 on host ravg1113 reporting.
  Task       88 on host ravg1113 reporting.
  Task       89 on host ravg1113 reporting.
  Task       90 on host ravg1113 reporting.
  Task       91 on host ravg1113 reporting.
  Task       92 on host ravg1113 reporting.
  Task       93 on host ravg1113 reporting.
  Task       94 on host ravg1113 reporting.
  Task       95 on host ravg1113 reporting.
  Task       96 on host ravg1113 reporting.
  Task       97 on host ravg1113 reporting.
  Task       98 on host ravg1113 reporting.
  Task       99 on host ravg1113 reporting.
  Task      100 on host ravg1113 reporting.
  Task      101 on host ravg1113 reporting.
  Task      102 on host ravg1113 reporting.
  Task      103 on host ravg1113 reporting.
  Task      104 on host ravg1113 reporting.
  Task      105 on host ravg1113 reporting.
  Task      106 on host ravg1113 reporting.
  Task      107 on host ravg1113 reporting.
  Task      108 on host ravg1113 reporting.
  Task      109 on host ravg1113 reporting.
  Task      110 on host ravg1113 reporting.
  Task      111 on host ravg1113 reporting.
  Task      112 on host ravg1113 reporting.
  Task      113 on host ravg1113 reporting.
  Task      114 on host ravg1113 reporting.
  Task      115 on host ravg1113 reporting.
  Task      116 on host ravg1113 reporting.
  Task      117 on host ravg1113 reporting.
  Task      118 on host ravg1113 reporting.
  Task      119 on host ravg1113 reporting.
  Task      120 on host ravg1113 reporting.
  Task      121 on host ravg1113 reporting.
  Task      122 on host ravg1113 reporting.
  Task      123 on host ravg1113 reporting.
  Task      124 on host ravg1113 reporting.
  Task      125 on host ravg1113 reporting.
  Task      126 on host ravg1113 reporting.
  Task      127 on host ravg1113 reporting.
  Task      128 on host ravg1113 reporting.
  Task      129 on host ravg1113 reporting.
  Task      130 on host ravg1113 reporting.
  Task      131 on host ravg1113 reporting.
  Task      132 on host ravg1113 reporting.
  Task      133 on host ravg1113 reporting.
  Task      134 on host ravg1113 reporting.
  Task      135 on host ravg1113 reporting.
  Task      136 on host ravg1113 reporting.
  Task      137 on host ravg1113 reporting.
  Task      138 on host ravg1113 reporting.
  Task      139 on host ravg1113 reporting.
  Task      140 on host ravg1113 reporting.
  Task      141 on host ravg1113 reporting.
  Task      142 on host ravg1113 reporting.
  Task      143 on host ravg1113 reporting.
  Task      144 on host ravg1114 reporting.
  Task      145 on host ravg1114 reporting.
  Task      146 on host ravg1114 reporting.
  Task      147 on host ravg1114 reporting.
  Task      148 on host ravg1114 reporting.
  Task      149 on host ravg1114 reporting.
  Task      150 on host ravg1114 reporting.
  Task      151 on host ravg1114 reporting.
  Task      152 on host ravg1114 reporting.
  Task      153 on host ravg1114 reporting.
  Task      154 on host ravg1114 reporting.
  Task      155 on host ravg1114 reporting.
  Task      156 on host ravg1114 reporting.
  Task      157 on host ravg1114 reporting.
  Task      158 on host ravg1114 reporting.
  Task      159 on host ravg1114 reporting.
  Task      160 on host ravg1114 reporting.
  Task      161 on host ravg1114 reporting.
  Task      162 on host ravg1114 reporting.
  Task      163 on host ravg1114 reporting.
  Task      164 on host ravg1114 reporting.
  Task      165 on host ravg1114 reporting.
  Task      166 on host ravg1114 reporting.
  Task      167 on host ravg1114 reporting.
  Task      168 on host ravg1114 reporting.
  Task      169 on host ravg1114 reporting.
  Task      170 on host ravg1114 reporting.
  Task      171 on host ravg1114 reporting.
  Task      172 on host ravg1114 reporting.
  Task      173 on host ravg1114 reporting.
  Task      174 on host ravg1114 reporting.
  Task      175 on host ravg1114 reporting.
  Task      176 on host ravg1114 reporting.
  Task      177 on host ravg1114 reporting.
  Task      178 on host ravg1114 reporting.
  Task      179 on host ravg1114 reporting.
  Task      180 on host ravg1114 reporting.
  Task      181 on host ravg1114 reporting.
  Task      182 on host ravg1114 reporting.
  Task      183 on host ravg1114 reporting.
  Task      184 on host ravg1114 reporting.
  Task      185 on host ravg1114 reporting.
  Task      186 on host ravg1114 reporting.
  Task      187 on host ravg1114 reporting.
  Task      188 on host ravg1114 reporting.
  Task      189 on host ravg1114 reporting.
  Task      190 on host ravg1114 reporting.
  Task      191 on host ravg1114 reporting.
  Task      192 on host ravg1114 reporting.
  Task      193 on host ravg1114 reporting.
  Task      194 on host ravg1114 reporting.
  Task      195 on host ravg1114 reporting.
  Task      196 on host ravg1114 reporting.
  Task      197 on host ravg1114 reporting.
  Task      198 on host ravg1114 reporting.
  Task      199 on host ravg1114 reporting.
  Task      200 on host ravg1114 reporting.
  Task      201 on host ravg1114 reporting.
  Task      202 on host ravg1114 reporting.
  Task      203 on host ravg1114 reporting.
  Task      204 on host ravg1114 reporting.
  Task      205 on host ravg1114 reporting.
  Task      206 on host ravg1114 reporting.
  Task      207 on host ravg1114 reporting.
  Task      208 on host ravg1114 reporting.
  Task      209 on host ravg1114 reporting.
  Task      210 on host ravg1114 reporting.
  Task      211 on host ravg1114 reporting.
  Task      212 on host ravg1114 reporting.
  Task      213 on host ravg1114 reporting.
  Task      214 on host ravg1114 reporting.
  Task      215 on host ravg1114 reporting.

  Performing system and environment tests:
  | Environment variable OMP_NUM_THREADS correctly set to 1.
  | Checking for ScaLAPACK...
  | Testing pdtran()...
  | All pdtran() tests passed.

  Obtaining array dimensions for all initial allocations:
  
  -----------------------------------------------------------------------
  Parsing control.in (first pass over file, find array dimensions only).
  The contents of control.in will be repeated verbatim below
  unless switched off by setting 'verbatim_writeout .false.' .
  in the first line of control.in .
  -----------------------------------------------------------------------
  
  xc                 hse06  0.11
  hse_unit b
  spin               collinear
  default_initial_moment 1
  charge      0.0
  relativistic       atomic_zora scalar
  #elsi_restart read
  # SCF settings
  #relax_geometry bfgs 1E-3
  #relax_unit_cell fixed_angles
  use_symmetric_forces .true.
  occupation_type gaussian       0.1
  # k-grid settings  (to be adjusted)
  k_grid  4 4 1
  #empty_states 8
  use_dipole_correction
  include_spin_orbit non_self_consistent
  # sc_accuracy_rho    1E-4
  #    sc_accuracy_eev    1E-3
  #    sc_accuracy_etot   1E-4
  #    sc_accuracy_forces 1E-2
  output dos_tetrahedron -10 0 2001 0.1
  output species_proj_dos_tetrahedron -10 0 2001 0.1
  
  many_body_dispersion_nl    beta=0.83
  ################################################################################
  #
  #  FHI-aims code project
  #  Volker Blum, 2018
  #
  #  Suggested "intermediate" defaults for Se atom (to be pasted into control.in file)
  #
  #  2020/09/15 These "intermediate" settings are identical to past "tight" defaults
  #             and differ only in the "g" function that is now included in "tight".
  #
  ################################################################################
    species        Se
  #     global species definitions
      nucleus             34
      mass                78.96
  #
      l_hartree           6
  #
      cut_pot             4.0          2.0  1.0
      basis_dep_cutoff    1e-4
  #
      radial_base         55 7.0
      radial_multiplier   2
      angular_grids       specified
        division   0.0830  110
        division   0.1357  194
        division   0.7377  302
        division   0.8610  434
  #      division   0.9640  590
  #      division   1.0773  770
  #      division   2.5539  974
  #      outer_grid  974
        outer_grid  434
  ################################################################################
  #
  #  Definition of "minimal" basis
  #
  ################################################################################
  #     valence basis states
      valence      4  s   2.
      valence      4  p   4.
      valence      3  d  10.
  #     ion occupancy
      ion_occ      4  s   1.
      ion_occ      4  p   3.
      ion_occ      3  d  10.
  ################################################################################
  #
  #  Suggested additional basis functions. For production calculations,
  #  uncomment them one after another (the most important basis functions are
  #  listed first).
  #
  #  Constructed for dimers: 1.85 A, 2.15 A, 2.50 A, 3.00 A, 4.00 A
  #
  ################################################################################
  #  "First tier" - improvements: -336.21 meV to -36.85 meV
       hydro 3 d 4.3
       hydro 2 p 1.6
       hydro 4 f 7.2
       ionic 4 s auto
  #  "Second tier" - improvements: -14.39 meV to -1.49 meV
  #     hydro 5 g 10.4
  #     hydro 4 p 4.5
  #     hydro 4 d 6.2
  #     hydro 4 f 11.2
  #     hydro 1 s 0.65
  #     hydro 6 h 15.2
  #  "Third tier" - improvements: -0.46 meV and below
  #     hydro 5 g 14.4
  #     ionic 4 d auto
  #     hydro 4 f 22.4
  #     hydro 5 f 7.4
  #     hydro 5 p 8
  #     hydro 5 s 9.4
  #  "Fourth tier" - improvements: -0.12 meV and below
  #     hydro 5 d 11.6
  #     hydro 6 h 18
  #     hydro 4 p 4
  #     hydro 5 f 16
  #     hydro 4 s 3.9
  
  
  ################################################################################
  #
  #  FHI-aims code project
  #  Volker Blum, 2018
  #
  #  Suggested "intermediate" defaults for S atom (to be pasted into control.in file)
  #
  ################################################################################
    species        S
  #     global species definitions
      nucleus             16
      mass                32.065
  #
      l_hartree           6
  #
      cut_pot             4.0          2.0  1.0
      basis_dep_cutoff    1e-4
  #
      radial_base         44 7.0
      radial_multiplier   2
      angular_grids       specified
        division   0.4665  110
        division   0.5810  194
        division   0.7139  302
        division   0.8274  434
  #      division   0.9105  590
  #      division   1.0975  770
  #      division   1.2028  974
  #      outer_grid  974
        outer_grid  434
  ################################################################################
  #
  #  Definition of "minimal" basis
  #
  ################################################################################
  #     valence basis states
      valence      3  s   2.
      valence      3  p   4.
  #     ion occupancy
      ion_occ      3  s   1.
      ion_occ      3  p   3.
  ################################################################################
  #
  #  Suggested additional basis functions. For production calculations,
  #  uncomment them one after another (the most important basis functions are
  #  listed first).
  #
  #  Constructed for dimers: 1.6 A, 1.9 A, 2.5 A, 3.25 A, 4.0 A
  #
  ################################################################################
  #  "First tier" - improvements: -652.81 meV to -45.53 meV
       ionic 3 d auto
       hydro 2 p 1.8
       hydro 4 f 7
       ionic 3 s auto
  #  "Second tier" - improvements: -30.20 meV to -1.74 meV
  #     hydro 4 d 6.2
  for_aux     hydro 5 g 10.8
  #     hydro 4 p 4.9
  #     hydro 5 f 10
  #     hydro 1 s 0.8
  #  "Third tier" - improvements: -1.04 meV to -0.20 meV
  #     hydro 3 d 3.9
  #     hydro 3 d 2.7
  #     hydro 5 g 12
  #     hydro 4 p 10.4
  #     hydro 5 f 12.4
  #     hydro 2 s 1.9
  #  "Fourth tier" - improvements: -0.35 meV to -0.06 meV
  #     hydro 4 d 10.4
  #     hydro 4 p 7.2
  #     hydro 4 d 10
  #     hydro 5 g 19.2
  #     hydro 4 s 12
  
  ################################################################################
  #
  #  FHI-aims code project
  # Volker Blum, Fritz Haber Institute Berlin, 2009
  #
  #  Suggested "intermediate" defaults for Mo atom (to be pasted into control.in file)
  #
  #  See https://aaltodoc.aalto.fi/handle/123456789/33620 for the report these
  #  setting are based on
  ################################################################################
    species        Mo
  #     global species definitions
      nucleus             42
      mass                95.94
  #
      l_hartree           6
  #
      cut_pot             4.0  2.0  1.0
      basis_dep_cutoff    1e-4
  #
      radial_base         59 7.0
      radial_multiplier   2
      angular_grids specified
        division   0.3117   50
        division   0.6750  110
        division   1.0351  194
        division   1.2073  302
        division   1.6402  434
  #      division   1.9185  590
  #      division   2.0237  770
  #      division   2.0980  974
  #      division   2.7972 1202
  #      outer_grid  974
        outer_grid  434
  ################################################################################
  #
  #  Definition of "minimal" basis
  #
  ################################################################################
  #     valence basis states
      valence      5  s   1.
      valence      4  p   6.
      valence      4  d   5.
  #     ion occupancy
      ion_occ     5  s   0.
      ion_occ     4  p   6.
      ion_occ     4  d   4.
  ################################################################################
  #
  #  Suggested additional basis functions. For production calculations,
  #  uncomment them one after another (the most important basis functions are
  #  listed first).
  #
  #  Constructed for dimers: 1.675 A, 1.9 A, 2.375 A, 3.00 A, 4.00 A
  #
  ################################################################################
  #  "First tier"  - max. impr. -711.23  meV, min. impr. -21.07 meV
       hydro 4 f 8.4
       hydro 3 d 2.8
       ionic 5 p auto
       for_aux hydro 5 g 12
       ionic 5 s auto
  #  "Second tier" - max. impr. -39.38  meV, min. impr. -2.68 meV
  #     hydro 4 f 12.4
  #     hydro 3 d 3.3
  #     hydro 6 h 17.2
  #     hydro 4 f 7.6
  #     hydro 3 p 3.0
  #     hydro 1 s 0.65
  #  "Third tier"  - max. impr. -5.50 meV, min. impr. -0.47 meV
  #     hydro 4 f 29.2
  #     hydro 5 g 11.2
  #     hydro 3 d 6.8
  #     hydro 6 h 14.8
  #     hydro 2 p 2.3
  #     hydro 4 s 3.8
  #  "Fourth tier"  - max. impr. -0.58 meV, min. impr. -0.19 meV
  #     hydro 5 f 6.8
  #     hydro 5 d 14.8
  #     hydro 6 s 7.8
  #     hydro 5 g 20.8
  #     hydro 5 d 10.4
  #     hydro 5 p 9.8
  #  Further functions - -0.17 meV and below
  #     hydro 5 d 3.2
  ################################################################################
  #
  #  FHI-aims code project
  #  Volker Blum, Maria Dragoumi, Sebastian Kokott 2020
  #
  #  Suggested "intermediate" defaults for W atom (to be pasted into control.in file)
  #
  ################################################################################
    species          W
  #     global species definitions
      nucleus        74
      mass           183.84
  #
      l_hartree      6
  #
      cut_pot        4.0  2.0  1.0
      basis_dep_cutoff    1e-4
  #
      radial_base    71  7.0
      radial_multiplier  2
      angular_grids specified
        division   0.2901   50
        division   0.6986  110
        division   1.0528  194
        division   1.2659  302
        division   1.5223  434
  #      division   1.8111  590
  #      division   2.0105  770
  #      division   2.0413  974
  #      division   2.8804 1202
  #      outer_grid  974
        outer_grid  434
  ################################################################################
  #
  #  Definition of "minimal" basis
  #
  ################################################################################
  #     valence basis states
      valence      6  s   2.
      valence      5  p   6.
      valence      5  d   4.
      valence      4  f  14.
  #     ion occupancy
      ion_occ      6  s   1.
      ion_occ      5  p   6.
      ion_occ      5  d   3.
      ion_occ      4  f  14.
  ################################################################################
  #
  #  Suggested additional basis functions. For production calculations,
  #  uncomment them one after another (the most important basis functions are
  #  listed first).
  #
  #  Constructed for dimers: 1.775, 1.99, 2.50, 3.25, 4.50 AA
  #
  ################################################################################
  #
  #  "First tier" - improvements: -603.77 meV to -28.99 meV
       hydro 4 f 7.8
       hydro 4 d 5.8
       ionic 6 p auto
    for_aux   hydro 5 g 12.4
       ionic 6 s auto
  #  "Second tier" - improvements: -28.30 meV to -1.31 meV
  #     hydro 6 h 16.8
  #     ionic 5 d auto
  #     hydro 4 f 8.6
  #     hydro 5 g 16.8
  #     hydro 5 d 8.4
  #     hydro 3 p 3.3
  #     hydro 1 s 0.55
  #  "Third tier" - max. impr. -1.79 meV, min. impr. -0.26 meV
  #     hydro 5 f 10.8
  #     hydro 5 g 34.4
  #     hydro 6 h 20.8
  #     hydro 5 g 12.8
  #     hydro 2 p 1.6
  #     hydro 4 s 4.7
  #     hydro 6 d 18.4
  #  "Fourth tier" -0.46 max. impr. - meV, min. impr. -0.09 meV
  #     hydro 6 h 21.6
  #     hydro 5 f 22.4
  #     hydro 4 f 4
  #     hydro 5 p 9.6
  #     hydro 6 d 17.2
  #     hydro 3 p 5.2
  #     hydro 5 g 4.7
  #     hydro 6 s 7.6
  
  -----------------------------------------------------------------------
  Completed first pass over input file control.in .
  -----------------------------------------------------------------------
  
  
  -----------------------------------------------------------------------
  Parsing geometry.in (first pass over file, find array dimensions only).
  The contents of geometry.in will be repeated verbatim below
  unless switched off by setting 'verbatim_writeout .false.' .
  in the first line of geometry.in .
  -----------------------------------------------------------------------
  
  #
  # This is the geometry file that corresponds to the current relaxation step.
  # If you do not want this file to be written, set the "write_restart_geometry" flag to .false.
  #  aims_uuid : 7A5A0C3B-7D41-4F75-A1CC-5C61088011F4
  #
    set_vacuum_level       103.343980
  lattice_vector     16.35742505      0.00000000      0.00000000
  lattice_vector     -8.17073830     14.17072870      0.00000000
  lattice_vector      0.00000000      0.00000000    103.34910518
  atom       0.00161756      0.93917265     51.70070856 W
  atom       1.65063987      1.90594738     53.36119460 Se
  atom       1.62893495      1.89149287     50.01813115 Se
  atom      -1.63043179      3.77706648     51.70683748 W
  atom       0.02268379      4.73157252     53.36809633 Se
  atom      -0.00458723      4.71605534     50.01866584 Se
  atom      -3.26885192      6.61122673     51.70097378 W
  atom      -1.60712878      7.55626590     53.36140960 Se
  atom      -1.63057711      7.54463938     50.01842613 Se
  atom      -4.91210820      9.43896350     51.68177895 W
  atom      -3.26689825     10.38372014     53.35269300 Se
  atom      -3.26685773     10.38366947     50.01232408 Se
  atom      -6.54505183     12.27106957     51.68165704 W
  atom      -4.90449580     13.22381049     53.35259927 Se
  atom      -4.90442309     13.22375767     50.01222435 Se
  atom       3.27215100      0.95020676     51.68166989 W
  atom       4.90701101      1.92691756     53.33710721 Se
  atom       4.90709700      1.88391003     49.99640555 Se
  atom       1.64667438      3.79618850     51.68009393 W
  atom       3.33026892      4.82132367     53.30167207 Se
  atom       3.25918837      4.74262026     49.96691247 Se
  atom       0.02655274      6.60639819     51.68035741 W
  atom       1.75631204      7.55224547     53.30197976 Se
  atom       1.65195024      7.52997428     49.96694866 Se
  atom      -1.62233226      9.43896317     51.68182648 W
  atom       0.04079384     10.36679542     53.33720878 Se
  atom       0.00353880     10.38832275     49.99651016 Se
  atom      -3.26559912     12.27697627     51.68251731 W
  atom      -1.62611755     13.22381007     53.35270513 Se
  atom      -1.62603831     13.22379659     50.01232927 Se
  atom       6.54129427      0.95023022     51.68177123 W
  atom       8.16333577      1.90611376     53.36142526 Se
  atom       8.18517877      1.89162446     50.01840491 Se
  atom       4.90838270      3.80862914     51.63640607 W
  atom       6.48673519      4.82184213     53.30187773 Se
  atom       6.55822334      4.74263975     49.96687782 Se
  atom       3.38422881      6.67222867     51.57509500 W
  atom       4.91003935      7.55362801     49.80091681 Se
  atom       1.66967957      9.42575127     51.63647285 W
  atom       3.33595457     10.28657215     53.30191512 Se
  atom       3.30306355     10.38806074     49.96685990 Se
  atom       0.01381854     12.27104428     51.68183767 W
  atom       1.65243348     13.19828311     53.36139298 Se
  atom       1.65072646     13.22444437     50.01840669 Se
  atom       9.81174948      0.93920924     51.70098161 W
  atom      11.44492983      1.88233286     53.37970991 Se
  atom      11.45204269      1.88656085     50.03503698 Se
  atom       8.16980507      3.79641732     51.68035220 W
  atom       9.79453685      4.73174246     53.36825934 Se
  atom       9.82173115      4.71600073     50.01881542 Se
  atom       6.43537319      6.67235654     51.57505146 W
  atom       8.06408347      7.55226519     53.30188837 Se
  atom       8.16838933      7.52991128     49.96686954 Se
  atom       4.91138804      9.31580828     51.57500295 W
  atom       6.48780279     10.28707485     53.30164545 Se
  atom       6.52053812     10.38795157     49.96685758 Se
  atom       3.29131327     12.25748693     51.68025599 W
  atom       4.91347959     13.19737498     53.36806564 Se
  atom       4.91332851     13.22874973     50.01860862 Se
  atom      13.08538049      0.93552615     51.70682598 W
  atom      14.72660413      1.88231671     53.37955097 Se
  atom      14.71927646      1.88654992     50.03488336 Se
  atom      11.44692838      3.77707878     51.70698810 W
  atom      13.08735119      4.72530759     53.37970218 Se
  atom      13.08724355      4.71699865     50.03502631 Se
  atom       9.79315901      6.60646055     51.68032304 W
  atom      11.42752969      7.55629222     53.36138257 Se
  atom      11.45097847      7.54461572     50.01837578 Se
  atom       8.15337736      9.42573821     51.63641987 W
  atom       9.78286463     10.36688892     53.33710531 Se
  atom       9.82014271     10.38828409     49.99642152 Se
  atom       6.53493521     12.25764417     51.68006869 W
  atom       8.17444730     13.19841729     53.36118664 Se
  atom       8.17614163     13.22443641     50.01811982 Se
  #
  # What follows is the current estimated Hessian matrix constructed by the BFGS algorithm.
  # This is NOT the true Hessian matrix of the system.
  # If you do not want this information here, switch it off using the "hessian_to_restart_geometry" keyword.
  #
  trust_radius             0.0003001432
  hessian_file
  
  -----------------------------------------------------------------------
  Completed first pass over input file geometry.in .
  -----------------------------------------------------------------------
  

  Basic array size parameters:
  | Number of species                 :        4
  | Number of atoms                   :       74
  | Number of lattice vectors         :        3
  | Max. basis fn. angular momentum   :        4
  | Max. atomic/ionic basis occupied n:        6
  | Max. number of basis fn. types    :        3
  | Max. radial fns per species/type  :       14
  | Max. logarithmic grid size        :     1483
  | Max. radial integration grid size :      143
  | Max. angular integration grid size:      434
  | Max. angular grid division number :        8
  | Radial grid for Hartree potential :     1483
  | Number of spin channels           :        2

------------------------------------------------------------
          Reading file control.in.
------------------------------------------------------------

  XC: Using HSE-functional with OMEGA =  0.110000E+00 <units>.
  XC: For the actual units (bohr^-1 or Angstrom^-1), see below.
  hse_unit: Unit for the HSE06 hybrid functional screening parameter set to bohr^(-1).
  Spin treatment: Spin density functional theory - collinear spins.
  Initial spin moment per atom:   1.0000
  Charge =   0.000000E+00: Neutral system requested explicitly.
  Scalar relativistic treatment of kinetic energy: on-site free-atom approximation to ZORA.
  Occupation type: Gaussian broadening, width =   0.100000E+00 eV.
  Found k-point grid:         4         4         1
  Using dipole correction.
  Calculating non-self-consistent second-variational spin-orbit coupling after scf-cycle
  You have request a SOC run with spin-polarization.
  symmetry_reduced_k_grid will be turned off.
  Calculating density of states with
  | energy interval :-10.000000  0.000000
  | points & tetrahedron method :  2001
  Calculating angular-momentum projected DOS with 
  | energy interval :-10.000000  0.000000
  | points & tetrahedron :  2001
  Using libMBD for calculating MBD and TS energies
 
  Reading configuration options for species Se                  .
  | Found nuclear charge :  34.0000
  | Found atomic mass :    78.9600000000000      amu
  | Found l_max for Hartree potential  :   6
  | Found cutoff potl. onset [A], width [A], scale factor :    4.00000    2.00000    1.00000
  | Threshold for basis-dependent cutoff potential is   0.100000E-03
  | Found data for basic radial integration grid :    55 points, outermost radius =    7.000 A
  | Found multiplier for basic radial grid :   2
  | Found angular grid specification: user-specified.
  | Specified grid contains     5 separate shells.
  | Check grid settings after all constraints further below.
  | Found free-atom valence shell :  4 s   2.000
  | Found free-atom valence shell :  4 p   4.000
  | Found free-atom valence shell :  3 d  10.000
  | Found free-ion valence shell :  4 s   1.000
  | Found free-ion valence shell :  4 p   3.000
  | Found free-ion valence shell :  3 d  10.000
  | Found hydrogenic basis function :  3 d   4.300
  | Found hydrogenic basis function :  2 p   1.600
  | Found hydrogenic basis function :  4 f   7.200
  | Found ionic basis function :  4 s , default cutoff radius.
  Species Se                  : Missing cutoff potential type.
  Defaulting to exp(1/x)/(1-x)^2 type cutoff potential.
  Species Se: No 'logarithmic' tag. Using default grid for free atom:
  | Default logarithmic grid data [bohr] : 0.1000E-03 0.1000E+03 0.1012E+01
  | Will include ionic basis functions of  2.0-fold positive Se                   ion.
  Species Se: On-site basis accuracy parameter (for Gram-Schmidt orthonormalisation) not specified.
  Using default value basis_acc =  0.1000000E-03.
  Species Se                  : Using default innermost maximum threshold i_radial=  2 for radial functions.
  Species Se                  : Default cutoff onset for free atom density etc. : 0.40000000E+01 AA.
  Species Se                  : Basic radial grid will be enhanced according to radial_multiplier =   2, to contain   111 grid points.
 
  Reading configuration options for species S                   .
  | Found nuclear charge :  16.0000
  | Found atomic mass :    32.0650000000000      amu
  | Found l_max for Hartree potential  :   6
  | Found cutoff potl. onset [A], width [A], scale factor :    4.00000    2.00000    1.00000
  | Threshold for basis-dependent cutoff potential is   0.100000E-03
  | Found data for basic radial integration grid :    44 points, outermost radius =    7.000 A
  | Found multiplier for basic radial grid :   2
  | Found angular grid specification: user-specified.
  | Specified grid contains     5 separate shells.
  | Check grid settings after all constraints further below.
  | Found free-atom valence shell :  3 s   2.000
  | Found free-atom valence shell :  3 p   4.000
  | Found free-ion valence shell :  3 s   1.000
  | Found free-ion valence shell :  3 p   3.000
  | Found ionic basis function :  3 d , default cutoff radius.
  | Found hydrogenic basis function :  2 p   1.800
  | Found hydrogenic basis function :  4 f   7.000
  | Found ionic basis function :  3 s , default cutoff radius.
  | Found hydrogenic extended basis function :  5 g  10.800
  Species S                   : Missing cutoff potential type.
  Defaulting to exp(1/x)/(1-x)^2 type cutoff potential.
  Species S : No 'logarithmic' tag. Using default grid for free atom:
  | Default logarithmic grid data [bohr] : 0.1000E-03 0.1000E+03 0.1012E+01
  | Will include ionic basis functions of  2.0-fold positive S                    ion.
  Species S : On-site basis accuracy parameter (for Gram-Schmidt orthonormalisation) not specified.
  Using default value basis_acc =  0.1000000E-03.
  Species S                   : Using default innermost maximum threshold i_radial=  2 for radial functions.
  Species S                   : Default cutoff onset for free atom density etc. : 0.40000000E+01 AA.
  Species S                   : Basic radial grid will be enhanced according to radial_multiplier =   2, to contain    89 grid points.
 
  Reading configuration options for species Mo                  .
  | Found nuclear charge :  42.0000
  | Found atomic mass :    95.9400000000000      amu
  | Found l_max for Hartree potential  :   6
  | Found cutoff potl. onset [A], width [A], scale factor :    4.00000    2.00000    1.00000
  | Threshold for basis-dependent cutoff potential is   0.100000E-03
  | Found data for basic radial integration grid :    59 points, outermost radius =    7.000 A
  | Found multiplier for basic radial grid :   2
  | Found angular grid specification: user-specified.
  | Specified grid contains     6 separate shells.
  | Check grid settings after all constraints further below.
  | Found free-atom valence shell :  5 s   1.000
  | Found free-atom valence shell :  4 p   6.000
  | Found free-atom valence shell :  4 d   5.000
  | Found free-ion valence shell :  5 s   0.000
  | Found free-ion valence shell :  4 p   6.000
  | Found free-ion valence shell :  4 d   4.000
  | Found hydrogenic basis function :  4 f   8.400
  | Found hydrogenic basis function :  3 d   2.800
  | Found ionic basis function :  5 p , default cutoff radius.
  | Found hydrogenic extended basis function :  5 g  12.000
  | Found ionic basis function :  5 s , default cutoff radius.
  Species Mo                  : Missing cutoff potential type.
  Defaulting to exp(1/x)/(1-x)^2 type cutoff potential.
  Species Mo: No 'logarithmic' tag. Using default grid for free atom:
  | Default logarithmic grid data [bohr] : 0.1000E-03 0.1000E+03 0.1012E+01
  | Will include ionic basis functions of  2.0-fold positive Mo                   ion.
  Species Mo: On-site basis accuracy parameter (for Gram-Schmidt orthonormalisation) not specified.
  Using default value basis_acc =  0.1000000E-03.
  Species Mo                  : Using default innermost maximum threshold i_radial=  2 for radial functions.
  Species Mo                  : Default cutoff onset for free atom density etc. : 0.40000000E+01 AA.
  Species Mo                  : Basic radial grid will be enhanced according to radial_multiplier =   2, to contain   119 grid points.
 
  Reading configuration options for species W                   .
  | Found nuclear charge :  74.0000
  | Found atomic mass :    183.840000000000      amu
  | Found l_max for Hartree potential  :   6
  | Found cutoff potl. onset [A], width [A], scale factor :    4.00000    2.00000    1.00000
  | Threshold for basis-dependent cutoff potential is   0.100000E-03
  | Found data for basic radial integration grid :    71 points, outermost radius =    7.000 A
  | Found multiplier for basic radial grid :   2
  | Found angular grid specification: user-specified.
  | Specified grid contains     6 separate shells.
  | Check grid settings after all constraints further below.
  | Found free-atom valence shell :  6 s   2.000
  | Found free-atom valence shell :  5 p   6.000
  | Found free-atom valence shell :  5 d   4.000
  | Found free-atom valence shell :  4 f  14.000
  | Found free-ion valence shell :  6 s   1.000
  | Found free-ion valence shell :  5 p   6.000
  | Found free-ion valence shell :  5 d   3.000
  | Found free-ion valence shell :  4 f  14.000
  | Found hydrogenic basis function :  4 f   7.800
  | Found hydrogenic basis function :  4 d   5.800
  | Found ionic basis function :  6 p , default cutoff radius.
  | Found hydrogenic extended basis function :  5 g  12.400
  | Found ionic basis function :  6 s , default cutoff radius.
  Species W                   : Missing cutoff potential type.
  Defaulting to exp(1/x)/(1-x)^2 type cutoff potential.
  Species W : No 'logarithmic' tag. Using default grid for free atom:
  | Default logarithmic grid data [bohr] : 0.1000E-03 0.1000E+03 0.1012E+01
  | Will include ionic basis functions of  2.0-fold positive W                    ion.
  Species W : On-site basis accuracy parameter (for Gram-Schmidt orthonormalisation) not specified.
  Using default value basis_acc =  0.1000000E-03.
  Species W                   : Using default innermost maximum threshold i_radial=  2 for radial functions.
  Species W                   : Default cutoff onset for free atom density etc. : 0.40000000E+01 AA.
  Species W                   : Basic radial grid will be enhanced according to radial_multiplier =   2, to contain   143 grid points.
 
  Finished reading input file 'control.in'.
 
------------------------------------------------------------


------------------------------------------------------------
          Reading geometry description geometry.in.
------------------------------------------------------------
  Vacuum level in z-axis :   0.103344E+03
  Found keyword 'hessian_file', indicating that this is the continuation of a structure optimization.
  However, the control.in file does not request the geometry to be optimized.
  Ignoring the request for a file 'hessian.aims' to be present.
  | The smallest distance between any two atoms is         2.50016729 AA.
  | The first atom of this pair is atom number                     38 .
  | The second atom of this pair is atom number                    51 .
  | Wigner-Seitz cell of the first atom image           0     1     0 .
  | (The Wigner-Seitz cell of the second atom is 0 0 0  by definition.)

  Symmetry information by spglib:
  | Precision set to  0.1E-04
  | Number of Operations  : 1
  | Space group           : 1
  | International         : P1
  | Schoenflies           : C1^1
  Input structure read successfully.
  The structure contains       74 atoms,  and a total of       3516.000 electrons.

  Input geometry:
  | Unit cell:
  |       16.35742505        0.00000000        0.00000000
  |       -8.17073830       14.17072870        0.00000000
  |        0.00000000        0.00000000      103.34910518
  | Atomic structure:
  |       Atom                x [A]            y [A]            z [A]
  |    1: Species W             0.00161756        0.93917265       51.70070856
  |    2: Species Se            1.65063987        1.90594738       53.36119460
  |    3: Species Se            1.62893495        1.89149287       50.01813115
  |    4: Species W            -1.63043179        3.77706648       51.70683748
  |    5: Species Se            0.02268379        4.73157252       53.36809633
  |    6: Species Se           -0.00458723        4.71605534       50.01866584
  |    7: Species W            -3.26885192        6.61122673       51.70097378
  |    8: Species Se           -1.60712878        7.55626590       53.36140960
  |    9: Species Se           -1.63057711        7.54463938       50.01842613
  |   10: Species W            -4.91210820        9.43896350       51.68177895
  |   11: Species Se           -3.26689825       10.38372014       53.35269300
  |   12: Species Se           -3.26685773       10.38366947       50.01232408
  |   13: Species W            -6.54505183       12.27106957       51.68165704
  |   14: Species Se           -4.90449580       13.22381049       53.35259927
  |   15: Species Se           -4.90442309       13.22375767       50.01222435
  |   16: Species W             3.27215100        0.95020676       51.68166989
  |   17: Species Se            4.90701101        1.92691756       53.33710721
  |   18: Species Se            4.90709700        1.88391003       49.99640555
  |   19: Species W             1.64667438        3.79618850       51.68009393
  |   20: Species Se            3.33026892        4.82132367       53.30167207
  |   21: Species Se            3.25918837        4.74262026       49.96691247
  |   22: Species W             0.02655274        6.60639819       51.68035741
  |   23: Species Se            1.75631204        7.55224547       53.30197976
  |   24: Species Se            1.65195024        7.52997428       49.96694866
  |   25: Species W            -1.62233226        9.43896317       51.68182648
  |   26: Species Se            0.04079384       10.36679542       53.33720878
  |   27: Species Se            0.00353880       10.38832275       49.99651016
  |   28: Species W            -3.26559912       12.27697627       51.68251731
  |   29: Species Se           -1.62611755       13.22381007       53.35270513
  |   30: Species Se           -1.62603831       13.22379659       50.01232927
  |   31: Species W             6.54129427        0.95023022       51.68177123
  |   32: Species Se            8.16333577        1.90611376       53.36142526
  |   33: Species Se            8.18517877        1.89162446       50.01840491
  |   34: Species W             4.90838270        3.80862914       51.63640607
  |   35: Species Se            6.48673519        4.82184213       53.30187773
  |   36: Species Se            6.55822334        4.74263975       49.96687782
  |   37: Species W             3.38422881        6.67222867       51.57509500
  |   38: Species Se            4.91003935        7.55362801       49.80091681
  |   39: Species W             1.66967957        9.42575127       51.63647285
  |   40: Species Se            3.33595457       10.28657215       53.30191512
  |   41: Species Se            3.30306355       10.38806074       49.96685990
  |   42: Species W             0.01381854       12.27104428       51.68183767
  |   43: Species Se            1.65243348       13.19828311       53.36139298
  |   44: Species Se            1.65072646       13.22444437       50.01840669
  |   45: Species W             9.81174948        0.93920924       51.70098161
  |   46: Species Se           11.44492983        1.88233286       53.37970991
  |   47: Species Se           11.45204269        1.88656085       50.03503698
  |   48: Species W             8.16980507        3.79641732       51.68035220
  |   49: Species Se            9.79453685        4.73174246       53.36825934
  |   50: Species Se            9.82173115        4.71600073       50.01881542
  |   51: Species W             6.43537319        6.67235654       51.57505146
  |   52: Species Se            8.06408347        7.55226519       53.30188837
  |   53: Species Se            8.16838933        7.52991128       49.96686954
  |   54: Species W             4.91138804        9.31580828       51.57500295
  |   55: Species Se            6.48780279       10.28707485       53.30164545
  |   56: Species Se            6.52053812       10.38795157       49.96685758
  |   57: Species W             3.29131327       12.25748693       51.68025599
  |   58: Species Se            4.91347959       13.19737498       53.36806564
  |   59: Species Se            4.91332851       13.22874973       50.01860862
  |   60: Species W            13.08538049        0.93552615       51.70682598
  |   61: Species Se           14.72660413        1.88231671       53.37955097
  |   62: Species Se           14.71927646        1.88654992       50.03488336
  |   63: Species W            11.44692838        3.77707878       51.70698810
  |   64: Species Se           13.08735119        4.72530759       53.37970218
  |   65: Species Se           13.08724355        4.71699865       50.03502631
  |   66: Species W             9.79315901        6.60646055       51.68032304
  |   67: Species Se           11.42752969        7.55629222       53.36138257
  |   68: Species Se           11.45097847        7.54461572       50.01837578
  |   69: Species W             8.15337736        9.42573821       51.63641987
  |   70: Species Se            9.78286463       10.36688892       53.33710531
  |   71: Species Se            9.82014271       10.38828409       49.99642152
  |   72: Species W             6.53493521       12.25764417       51.68006869
  |   73: Species Se            8.17444730       13.19841729       53.36118664
  |   74: Species Se            8.17614163       13.22443641       50.01811982

  Lattice parameters for 3D lattice (in Angstroms) :    16.357425   16.357583  103.349105
  Angle(s) between unit vectors (in degrees)       :    90.000000   90.000000  119.967434


  Quantities derived from the lattice vectors:
  | Reciprocal lattice vector 1:  0.384118  0.221480  0.000000
  | Reciprocal lattice vector 2: -0.000000  0.443392  0.000000
  | Reciprocal lattice vector 3:  0.000000  0.000000  0.060796
  | Unit cell volume                               :   0.239560E+05  A^3

  Fractional coordinates:
                         L1                L2                L3
       atom_frac         0.03320435        0.06627554        0.50025308  W
       atom_frac         0.16809462        0.13449890        0.51631985  Se
       atom_frac         0.16625819        0.13347887        0.48397256  Se
       atom_frac         0.03346474        0.26654003        0.50031239  W
       atom_frac         0.16817279        0.33389762        0.51638663  Se
       atom_frac         0.16595862        0.33280260        0.48397774  Se
       atom_frac         0.03320406        0.46654106        0.50025565  W
       atom_frac         0.16810462        0.53323058        0.51632193  Se
       atom_frac         0.16626129        0.53241012        0.48397542  Se
       atom_frac         0.03242130        0.66608879        0.50006992  W
       atom_frac         0.16630238        0.73275838        0.51623759  Se
       atom_frac         0.16630307        0.73275480        0.48391637  Se
       atom_frac         0.03242301        0.86594485        0.50006874  W
       atom_frac         0.16630102        0.93317787        0.51623668  Se
       atom_frac         0.16630360        0.93317415        0.48391541  Se
       atom_frac         0.23353512        0.06705419        0.50006887  W
       atom_frac         0.36790984        0.13597872        0.51608678  Se
       atom_frac         0.36639909        0.13294377        0.48376235  Se
       atom_frac         0.23448243        0.26788943        0.50005362  W
       atom_frac         0.37354344        0.34023117        0.51574391  Se
       atom_frac         0.36642371        0.33467723        0.48347697  Se
       atom_frac         0.23449617        0.46620032        0.50005617  W
       atom_frac         0.37358456        0.53294687        0.51574689  Se
       atom_frac         0.36641942        0.53137523        0.48347732  Se
       atom_frac         0.23353949        0.66608876        0.50007038  W
       atom_frac         0.36791928        0.73156403        0.51608777  Se
       atom_frac         0.36640055        0.73308317        0.48376336  Se
       atom_frac         0.23311832        0.86636168        0.50007707  W
       atom_frac         0.36672241        0.93317784        0.51623771  Se
       atom_frac         0.36672678        0.93317689        0.48391642  Se
       atom_frac         0.43339279        0.06705585        0.50006985  W
       atom_frac         0.56624970        0.13451064        0.51632208  Se
       atom_frac         0.56707431        0.13348816        0.48397521  Se
       atom_frac         0.43432327        0.26876735        0.49963090  W
       atom_frac         0.56653012        0.34026776        0.51574590  Se
       atom_frac         0.56810865        0.33467861        0.48347664  Se
       atom_frac         0.44208590        0.47084584        0.49903765  W
       atom_frac         0.56643426        0.53304443        0.48187081  Se
       atom_frac         0.43432867        0.66515643        0.49963154  W
       atom_frac         0.56653884        0.72590284        0.51574627  Se
       atom_frac         0.56810551        0.73306468        0.48347646  Se
       atom_frac         0.43339417        0.86594307        0.50007049  W
       atom_frac         0.56625458        0.93137646        0.51632177  Se
       atom_frac         0.56707239        0.93322261        0.48397523  Se
       atom_frac         0.63294135        0.06627812        0.50025573  W
       atom_frac         0.76602944        0.13283247        0.51649900  Se
       atom_frac         0.76661332        0.13313083        0.48413614  Se
       atom_frac         0.63327764        0.26790558        0.50005612  W
       atom_frac         0.76557434        0.33390961        0.51638821  Se
       atom_frac         0.76668195        0.33279875        0.48397918  Se
       atom_frac         0.62862003        0.47085486        0.49903723  W
       atom_frac         0.75920655        0.53294826        0.51574601  Se
       atom_frac         0.76479525        0.53137079        0.48347656  Se
       atom_frac         0.62863286        0.65739797        0.49903676  W
       atom_frac         0.75924265        0.72593831        0.51574366  Se
       atom_frac         0.76479977        0.73305698        0.48347644  Se
       atom_frac         0.63328368        0.86498635        0.50005519  W
       atom_frac         0.76558439        0.93131237        0.51638633  Se
       atom_frac         0.76668110        0.93352643        0.48397718  Se
       atom_frac         0.83294271        0.06601821        0.50031228  W
       atom_frac         0.96665179        0.13283133        0.51649747  Se
       atom_frac         0.96635303        0.13313006        0.48413465  Se
       atom_frac         0.83294065        0.26654090        0.50031384  W
       atom_frac         0.96665147        0.33345551        0.51649893  Se
       atom_frac         0.96635200        0.33286917        0.48413604  Se
       atom_frac         0.83157317        0.46620472        0.50005583  W
       atom_frac         0.96497049        0.53323244        0.51632167  Se
       atom_frac         0.96599242        0.53240845        0.48397493  Se
       atom_frac         0.83070464        0.66515551        0.49963103  W
       atom_frac         0.96349742        0.73157063        0.51608676  Se
       atom_frac         0.96653056        0.73308044        0.48376250  Se
       atom_frac         0.83158584        0.86499745        0.50005337  W
       atom_frac         0.96497816        0.93138593        0.51631977  Se
       atom_frac         0.96599891        0.93322204        0.48397245  Se

  Initial moments and charges:
  |  Atom   Moment         Charge        Species
  |     1   0.100000E+01   0.000000E+00   W
  |     2   0.100000E+01   0.000000E+00   Se
  |     3   0.100000E+01   0.000000E+00   Se
  |     4   0.100000E+01   0.000000E+00   W
  |     5   0.100000E+01   0.000000E+00   Se
  |     6   0.100000E+01   0.000000E+00   Se
  |     7   0.100000E+01   0.000000E+00   W
  |     8   0.100000E+01   0.000000E+00   Se
  |     9   0.100000E+01   0.000000E+00   Se
  |    10   0.100000E+01   0.000000E+00   W
  |    11   0.100000E+01   0.000000E+00   Se
  |    12   0.100000E+01   0.000000E+00   Se
  |    13   0.100000E+01   0.000000E+00   W
  |    14   0.100000E+01   0.000000E+00   Se
  |    15   0.100000E+01   0.000000E+00   Se
  |    16   0.100000E+01   0.000000E+00   W
  |    17   0.100000E+01   0.000000E+00   Se
  |    18   0.100000E+01   0.000000E+00   Se
  |    19   0.100000E+01   0.000000E+00   W
  |    20   0.100000E+01   0.000000E+00   Se
  |    21   0.100000E+01   0.000000E+00   Se
  |    22   0.100000E+01   0.000000E+00   W
  |    23   0.100000E+01   0.000000E+00   Se
  |    24   0.100000E+01   0.000000E+00   Se
  |    25   0.100000E+01   0.000000E+00   W
  |    26   0.100000E+01   0.000000E+00   Se
  |    27   0.100000E+01   0.000000E+00   Se
  |    28   0.100000E+01   0.000000E+00   W
  |    29   0.100000E+01   0.000000E+00   Se
  |    30   0.100000E+01   0.000000E+00   Se
  |    31   0.100000E+01   0.000000E+00   W
  |    32   0.100000E+01   0.000000E+00   Se
  |    33   0.100000E+01   0.000000E+00   Se
  |    34   0.100000E+01   0.000000E+00   W
  |    35   0.100000E+01   0.000000E+00   Se
  |    36   0.100000E+01   0.000000E+00   Se
  |    37   0.100000E+01   0.000000E+00   W
  |    38   0.100000E+01   0.000000E+00   Se
  |    39   0.100000E+01   0.000000E+00   W
  |    40   0.100000E+01   0.000000E+00   Se
  |    41   0.100000E+01   0.000000E+00   Se
  |    42   0.100000E+01   0.000000E+00   W
  |    43   0.100000E+01   0.000000E+00   Se
  |    44   0.100000E+01   0.000000E+00   Se
  |    45   0.100000E+01   0.000000E+00   W
  |    46   0.100000E+01   0.000000E+00   Se
  |    47   0.100000E+01   0.000000E+00   Se
  |    48   0.100000E+01   0.000000E+00   W
  |    49   0.100000E+01   0.000000E+00   Se
  |    50   0.100000E+01   0.000000E+00   Se
  |    51   0.100000E+01   0.000000E+00   W
  |    52   0.100000E+01   0.000000E+00   Se
  |    53   0.100000E+01   0.000000E+00   Se
  |    54   0.100000E+01   0.000000E+00   W
  |    55   0.100000E+01   0.000000E+00   Se
  |    56   0.100000E+01   0.000000E+00   Se
  |    57   0.100000E+01   0.000000E+00   W
  |    58   0.100000E+01   0.000000E+00   Se
  |    59   0.100000E+01   0.000000E+00   Se
  |    60   0.100000E+01   0.000000E+00   W
  |    61   0.100000E+01   0.000000E+00   Se
  |    62   0.100000E+01   0.000000E+00   Se
  |    63   0.100000E+01   0.000000E+00   W
  |    64   0.100000E+01   0.000000E+00   Se
  |    65   0.100000E+01   0.000000E+00   Se
  |    66   0.100000E+01   0.000000E+00   W
  |    67   0.100000E+01   0.000000E+00   Se
  |    68   0.100000E+01   0.000000E+00   Se
  |    69   0.100000E+01   0.000000E+00   W
  |    70   0.100000E+01   0.000000E+00   Se
  |    71   0.100000E+01   0.000000E+00   Se
  |    72   0.100000E+01   0.000000E+00   W
  |    73   0.100000E+01   0.000000E+00   Se
  |    74   0.100000E+01   0.000000E+00   Se

 
  Finished reading input file 'control.in'.
 

------------------------------------------------------------
          Reading geometry description geometry.in.
------------------------------------------------------------
 
  Consistency checks for stacksize environment parameter are next.
 
  | Maximum stacksize for task 0: unlimited
  | Maximum stacksize for task 1: unlimited
  | Maximum stacksize for task 2: unlimited
  | Maximum stacksize for task 3: unlimited
  | Maximum stacksize for task 4: unlimited
  | Maximum stacksize for task 5: unlimited
  | Maximum stacksize for task 6: unlimited
  | Maximum stacksize for task 7: unlimited
  | Maximum stacksize for task 8: unlimited
  | Maximum stacksize for task 9: unlimited
  | Maximum stacksize for task 10: unlimited
  | Maximum stacksize for task 11: unlimited
  | Maximum stacksize for task 12: unlimited
  | Maximum stacksize for task 13: unlimited
  | Maximum stacksize for task 14: unlimited
  | Maximum stacksize for task 15: unlimited
  | Maximum stacksize for task 16: unlimited
  | Maximum stacksize for task 17: unlimited
  | Maximum stacksize for task 18: unlimited
  | Maximum stacksize for task 19: unlimited
  | Maximum stacksize for task 20: unlimited
  | Maximum stacksize for task 21: unlimited
  | Maximum stacksize for task 22: unlimited
  | Maximum stacksize for task 23: unlimited
  | Maximum stacksize for task 24: unlimited
  | Maximum stacksize for task 25: unlimited
  | Maximum stacksize for task 26: unlimited
  | Maximum stacksize for task 27: unlimited
  | Maximum stacksize for task 28: unlimited
  | Maximum stacksize for task 29: unlimited
  | Maximum stacksize for task 30: unlimited
  | Maximum stacksize for task 31: unlimited
  | Maximum stacksize for task 32: unlimited
  | Maximum stacksize for task 33: unlimited
  | Maximum stacksize for task 34: unlimited
  | Maximum stacksize for task 35: unlimited
  | Maximum stacksize for task 36: unlimited
  | Maximum stacksize for task 37: unlimited
  | Maximum stacksize for task 38: unlimited
  | Maximum stacksize for task 39: unlimited
  | Maximum stacksize for task 40: unlimited
  | Maximum stacksize for task 41: unlimited
  | Maximum stacksize for task 42: unlimited
  | Maximum stacksize for task 43: unlimited
  | Maximum stacksize for task 44: unlimited
  | Maximum stacksize for task 45: unlimited
  | Maximum stacksize for task 46: unlimited
  | Maximum stacksize for task 47: unlimited
  | Maximum stacksize for task 48: unlimited
  | Maximum stacksize for task 49: unlimited
  | Maximum stacksize for task 50: unlimited
  | Maximum stacksize for task 51: unlimited
  | Maximum stacksize for task 52: unlimited
  | Maximum stacksize for task 53: unlimited
  | Maximum stacksize for task 54: unlimited
  | Maximum stacksize for task 55: unlimited
  | Maximum stacksize for task 56: unlimited
  | Maximum stacksize for task 57: unlimited
  | Maximum stacksize for task 58: unlimited
  | Maximum stacksize for task 59: unlimited
  | Maximum stacksize for task 60: unlimited
  | Maximum stacksize for task 61: unlimited
  | Maximum stacksize for task 62: unlimited
  | Maximum stacksize for task 63: unlimited
  | Maximum stacksize for task 64: unlimited
  | Maximum stacksize for task 65: unlimited
  | Maximum stacksize for task 66: unlimited
  | Maximum stacksize for task 67: unlimited
  | Maximum stacksize for task 68: unlimited
  | Maximum stacksize for task 69: unlimited
  | Maximum stacksize for task 70: unlimited
  | Maximum stacksize for task 71: unlimited
  | Maximum stacksize for task 72: unlimited
  | Maximum stacksize for task 73: unlimited
  | Maximum stacksize for task 74: unlimited
  | Maximum stacksize for task 75: unlimited
  | Maximum stacksize for task 76: unlimited
  | Maximum stacksize for task 77: unlimited
  | Maximum stacksize for task 78: unlimited
  | Maximum stacksize for task 79: unlimited
  | Maximum stacksize for task 80: unlimited
  | Maximum stacksize for task 81: unlimited
  | Maximum stacksize for task 82: unlimited
  | Maximum stacksize for task 83: unlimited
  | Maximum stacksize for task 84: unlimited
  | Maximum stacksize for task 85: unlimited
  | Maximum stacksize for task 86: unlimited
  | Maximum stacksize for task 87: unlimited
  | Maximum stacksize for task 88: unlimited
  | Maximum stacksize for task 89: unlimited
  | Maximum stacksize for task 90: unlimited
  | Maximum stacksize for task 91: unlimited
  | Maximum stacksize for task 92: unlimited
  | Maximum stacksize for task 93: unlimited
  | Maximum stacksize for task 94: unlimited
  | Maximum stacksize for task 95: unlimited
  | Maximum stacksize for task 96: unlimited
  | Maximum stacksize for task 97: unlimited
  | Maximum stacksize for task 98: unlimited
  | Maximum stacksize for task 99: unlimited
  | Maximum stacksize for task 100: unlimited
  | Maximum stacksize for task 101: unlimited
  | Maximum stacksize for task 102: unlimited
  | Maximum stacksize for task 103: unlimited
  | Maximum stacksize for task 104: unlimited
  | Maximum stacksize for task 105: unlimited
  | Maximum stacksize for task 106: unlimited
  | Maximum stacksize for task 107: unlimited
  | Maximum stacksize for task 108: unlimited
  | Maximum stacksize for task 109: unlimited
  | Maximum stacksize for task 110: unlimited
  | Maximum stacksize for task 111: unlimited
  | Maximum stacksize for task 112: unlimited
  | Maximum stacksize for task 113: unlimited
  | Maximum stacksize for task 114: unlimited
  | Maximum stacksize for task 115: unlimited
  | Maximum stacksize for task 116: unlimited
  | Maximum stacksize for task 117: unlimited
  | Maximum stacksize for task 118: unlimited
  | Maximum stacksize for task 119: unlimited
  | Maximum stacksize for task 120: unlimited
  | Maximum stacksize for task 121: unlimited
  | Maximum stacksize for task 122: unlimited
  | Maximum stacksize for task 123: unlimited
  | Maximum stacksize for task 124: unlimited
  | Maximum stacksize for task 125: unlimited
  | Maximum stacksize for task 126: unlimited
  | Maximum stacksize for task 127: unlimited
  | Maximum stacksize for task 128: unlimited
  | Maximum stacksize for task 129: unlimited
  | Maximum stacksize for task 130: unlimited
  | Maximum stacksize for task 131: unlimited
  | Maximum stacksize for task 132: unlimited
  | Maximum stacksize for task 133: unlimited
  | Maximum stacksize for task 134: unlimited
  | Maximum stacksize for task 135: unlimited
  | Maximum stacksize for task 136: unlimited
  | Maximum stacksize for task 137: unlimited
  | Maximum stacksize for task 138: unlimited
  | Maximum stacksize for task 139: unlimited
  | Maximum stacksize for task 140: unlimited
  | Maximum stacksize for task 141: unlimited
  | Maximum stacksize for task 142: unlimited
  | Maximum stacksize for task 143: unlimited
  | Maximum stacksize for task 144: unlimited
  | Maximum stacksize for task 145: unlimited
  | Maximum stacksize for task 146: unlimited
  | Maximum stacksize for task 147: unlimited
  | Maximum stacksize for task 148: unlimited
  | Maximum stacksize for task 149: unlimited
  | Maximum stacksize for task 150: unlimited
  | Maximum stacksize for task 151: unlimited
  | Maximum stacksize for task 152: unlimited
  | Maximum stacksize for task 153: unlimited
  | Maximum stacksize for task 154: unlimited
  | Maximum stacksize for task 155: unlimited
  | Maximum stacksize for task 156: unlimited
  | Maximum stacksize for task 157: unlimited
  | Maximum stacksize for task 158: unlimited
  | Maximum stacksize for task 159: unlimited
  | Maximum stacksize for task 160: unlimited
  | Maximum stacksize for task 161: unlimited
  | Maximum stacksize for task 162: unlimited
  | Maximum stacksize for task 163: unlimited
  | Maximum stacksize for task 164: unlimited
  | Maximum stacksize for task 165: unlimited
  | Maximum stacksize for task 166: unlimited
  | Maximum stacksize for task 167: unlimited
  | Maximum stacksize for task 168: unlimited
  | Maximum stacksize for task 169: unlimited
  | Maximum stacksize for task 170: unlimited
  | Maximum stacksize for task 171: unlimited
  | Maximum stacksize for task 172: unlimited
  | Maximum stacksize for task 173: unlimited
  | Maximum stacksize for task 174: unlimited
  | Maximum stacksize for task 175: unlimited
  | Maximum stacksize for task 176: unlimited
  | Maximum stacksize for task 177: unlimited
  | Maximum stacksize for task 178: unlimited
  | Maximum stacksize for task 179: unlimited
  | Maximum stacksize for task 180: unlimited
  | Maximum stacksize for task 181: unlimited
  | Maximum stacksize for task 182: unlimited
  | Maximum stacksize for task 183: unlimited
  | Maximum stacksize for task 184: unlimited
  | Maximum stacksize for task 185: unlimited
  | Maximum stacksize for task 186: unlimited
  | Maximum stacksize for task 187: unlimited
  | Maximum stacksize for task 188: unlimited
  | Maximum stacksize for task 189: unlimited
  | Maximum stacksize for task 190: unlimited
  | Maximum stacksize for task 191: unlimited
  | Maximum stacksize for task 192: unlimited
  | Maximum stacksize for task 193: unlimited
  | Maximum stacksize for task 194: unlimited
  | Maximum stacksize for task 195: unlimited
  | Maximum stacksize for task 196: unlimited
  | Maximum stacksize for task 197: unlimited
  | Maximum stacksize for task 198: unlimited
  | Maximum stacksize for task 199: unlimited
  | Maximum stacksize for task 200: unlimited
  | Maximum stacksize for task 201: unlimited
  | Maximum stacksize for task 202: unlimited
  | Maximum stacksize for task 203: unlimited
  | Maximum stacksize for task 204: unlimited
  | Maximum stacksize for task 205: unlimited
  | Maximum stacksize for task 206: unlimited
  | Maximum stacksize for task 207: unlimited
  | Maximum stacksize for task 208: unlimited
  | Maximum stacksize for task 209: unlimited
  | Maximum stacksize for task 210: unlimited
  | Maximum stacksize for task 211: unlimited
  | Maximum stacksize for task 212: unlimited
  | Maximum stacksize for task 213: unlimited
  | Maximum stacksize for task 214: unlimited
  | Maximum stacksize for task 215: unlimited
  | Current stacksize for task 0: unlimited
  | Current stacksize for task 1: unlimited
  | Current stacksize for task 2: unlimited
  | Current stacksize for task 3: unlimited
  | Current stacksize for task 4: unlimited
  | Current stacksize for task 5: unlimited
  | Current stacksize for task 6: unlimited
  | Current stacksize for task 7: unlimited
  | Current stacksize for task 8: unlimited
  | Current stacksize for task 9: unlimited
  | Current stacksize for task 10: unlimited
  | Current stacksize for task 11: unlimited
  | Current stacksize for task 12: unlimited
  | Current stacksize for task 13: unlimited
  | Current stacksize for task 14: unlimited
  | Current stacksize for task 15: unlimited
  | Current stacksize for task 16: unlimited
  | Current stacksize for task 17: unlimited
  | Current stacksize for task 18: unlimited
  | Current stacksize for task 19: unlimited
  | Current stacksize for task 20: unlimited
  | Current stacksize for task 21: unlimited
  | Current stacksize for task 22: unlimited
  | Current stacksize for task 23: unlimited
  | Current stacksize for task 24: unlimited
  | Current stacksize for task 25: unlimited
  | Current stacksize for task 26: unlimited
  | Current stacksize for task 27: unlimited
  | Current stacksize for task 28: unlimited
  | Current stacksize for task 29: unlimited
  | Current stacksize for task 30: unlimited
  | Current stacksize for task 31: unlimited
  | Current stacksize for task 32: unlimited
  | Current stacksize for task 33: unlimited
  | Current stacksize for task 34: unlimited
  | Current stacksize for task 35: unlimited
  | Current stacksize for task 36: unlimited
  | Current stacksize for task 37: unlimited
  | Current stacksize for task 38: unlimited
  | Current stacksize for task 39: unlimited
  | Current stacksize for task 40: unlimited
  | Current stacksize for task 41: unlimited
  | Current stacksize for task 42: unlimited
  | Current stacksize for task 43: unlimited
  | Current stacksize for task 44: unlimited
  | Current stacksize for task 45: unlimited
  | Current stacksize for task 46: unlimited
  | Current stacksize for task 47: unlimited
  | Current stacksize for task 48: unlimited
  | Current stacksize for task 49: unlimited
  | Current stacksize for task 50: unlimited
  | Current stacksize for task 51: unlimited
  | Current stacksize for task 52: unlimited
  | Current stacksize for task 53: unlimited
  | Current stacksize for task 54: unlimited
  | Current stacksize for task 55: unlimited
  | Current stacksize for task 56: unlimited
  | Current stacksize for task 57: unlimited
  | Current stacksize for task 58: unlimited
  | Current stacksize for task 59: unlimited
  | Current stacksize for task 60: unlimited
  | Current stacksize for task 61: unlimited
  | Current stacksize for task 62: unlimited
  | Current stacksize for task 63: unlimited
  | Current stacksize for task 64: unlimited
  | Current stacksize for task 65: unlimited
  | Current stacksize for task 66: unlimited
  | Current stacksize for task 67: unlimited
  | Current stacksize for task 68: unlimited
  | Current stacksize for task 69: unlimited
  | Current stacksize for task 70: unlimited
  | Current stacksize for task 71: unlimited
  | Current stacksize for task 72: unlimited
  | Current stacksize for task 73: unlimited
  | Current stacksize for task 74: unlimited
  | Current stacksize for task 75: unlimited
  | Current stacksize for task 76: unlimited
  | Current stacksize for task 77: unlimited
  | Current stacksize for task 78: unlimited
  | Current stacksize for task 79: unlimited
  | Current stacksize for task 80: unlimited
  | Current stacksize for task 81: unlimited
  | Current stacksize for task 82: unlimited
  | Current stacksize for task 83: unlimited
  | Current stacksize for task 84: unlimited
  | Current stacksize for task 85: unlimited
  | Current stacksize for task 86: unlimited
  | Current stacksize for task 87: unlimited
  | Current stacksize for task 88: unlimited
  | Current stacksize for task 89: unlimited
  | Current stacksize for task 90: unlimited
  | Current stacksize for task 91: unlimited
  | Current stacksize for task 92: unlimited
  | Current stacksize for task 93: unlimited
  | Current stacksize for task 94: unlimited
  | Current stacksize for task 95: unlimited
  | Current stacksize for task 96: unlimited
  | Current stacksize for task 97: unlimited
  | Current stacksize for task 98: unlimited
  | Current stacksize for task 99: unlimited
  | Current stacksize for task 100: unlimited
  | Current stacksize for task 101: unlimited
  | Current stacksize for task 102: unlimited
  | Current stacksize for task 103: unlimited
  | Current stacksize for task 104: unlimited
  | Current stacksize for task 105: unlimited
  | Current stacksize for task 106: unlimited
  | Current stacksize for task 107: unlimited
  | Current stacksize for task 108: unlimited
  | Current stacksize for task 109: unlimited
  | Current stacksize for task 110: unlimited
  | Current stacksize for task 111: unlimited
  | Current stacksize for task 112: unlimited
  | Current stacksize for task 113: unlimited
  | Current stacksize for task 114: unlimited
  | Current stacksize for task 115: unlimited
  | Current stacksize for task 116: unlimited
  | Current stacksize for task 117: unlimited
  | Current stacksize for task 118: unlimited
  | Current stacksize for task 119: unlimited
  | Current stacksize for task 120: unlimited
  | Current stacksize for task 121: unlimited
  | Current stacksize for task 122: unlimited
  | Current stacksize for task 123: unlimited
  | Current stacksize for task 124: unlimited
  | Current stacksize for task 125: unlimited
  | Current stacksize for task 126: unlimited
  | Current stacksize for task 127: unlimited
  | Current stacksize for task 128: unlimited
  | Current stacksize for task 129: unlimited
  | Current stacksize for task 130: unlimited
  | Current stacksize for task 131: unlimited
  | Current stacksize for task 132: unlimited
  | Current stacksize for task 133: unlimited
  | Current stacksize for task 134: unlimited
  | Current stacksize for task 135: unlimited
  | Current stacksize for task 136: unlimited
  | Current stacksize for task 137: unlimited
  | Current stacksize for task 138: unlimited
  | Current stacksize for task 139: unlimited
  | Current stacksize for task 140: unlimited
  | Current stacksize for task 141: unlimited
  | Current stacksize for task 142: unlimited
  | Current stacksize for task 143: unlimited
  | Current stacksize for task 144: unlimited
  | Current stacksize for task 145: unlimited
  | Current stacksize for task 146: unlimited
  | Current stacksize for task 147: unlimited
  | Current stacksize for task 148: unlimited
  | Current stacksize for task 149: unlimited
  | Current stacksize for task 150: unlimited
  | Current stacksize for task 151: unlimited
  | Current stacksize for task 152: unlimited
  | Current stacksize for task 153: unlimited
  | Current stacksize for task 154: unlimited
  | Current stacksize for task 155: unlimited
  | Current stacksize for task 156: unlimited
  | Current stacksize for task 157: unlimited
  | Current stacksize for task 158: unlimited
  | Current stacksize for task 159: unlimited
  | Current stacksize for task 160: unlimited
  | Current stacksize for task 161: unlimited
  | Current stacksize for task 162: unlimited
  | Current stacksize for task 163: unlimited
  | Current stacksize for task 164: unlimited
  | Current stacksize for task 165: unlimited
  | Current stacksize for task 166: unlimited
  | Current stacksize for task 167: unlimited
  | Current stacksize for task 168: unlimited
  | Current stacksize for task 169: unlimited
  | Current stacksize for task 170: unlimited
  | Current stacksize for task 171: unlimited
  | Current stacksize for task 172: unlimited
  | Current stacksize for task 173: unlimited
  | Current stacksize for task 174: unlimited
  | Current stacksize for task 175: unlimited
  | Current stacksize for task 176: unlimited
  | Current stacksize for task 177: unlimited
  | Current stacksize for task 178: unlimited
  | Current stacksize for task 179: unlimited
  | Current stacksize for task 180: unlimited
  | Current stacksize for task 181: unlimited
  | Current stacksize for task 182: unlimited
  | Current stacksize for task 183: unlimited
  | Current stacksize for task 184: unlimited
  | Current stacksize for task 185: unlimited
  | Current stacksize for task 186: unlimited
  | Current stacksize for task 187: unlimited
  | Current stacksize for task 188: unlimited
  | Current stacksize for task 189: unlimited
  | Current stacksize for task 190: unlimited
  | Current stacksize for task 191: unlimited
  | Current stacksize for task 192: unlimited
  | Current stacksize for task 193: unlimited
  | Current stacksize for task 194: unlimited
  | Current stacksize for task 195: unlimited
  | Current stacksize for task 196: unlimited
  | Current stacksize for task 197: unlimited
  | Current stacksize for task 198: unlimited
  | Current stacksize for task 199: unlimited
  | Current stacksize for task 200: unlimited
  | Current stacksize for task 201: unlimited
  | Current stacksize for task 202: unlimited
  | Current stacksize for task 203: unlimited
  | Current stacksize for task 204: unlimited
  | Current stacksize for task 205: unlimited
  | Current stacksize for task 206: unlimited
  | Current stacksize for task 207: unlimited
  | Current stacksize for task 208: unlimited
  | Current stacksize for task 209: unlimited
  | Current stacksize for task 210: unlimited
  | Current stacksize for task 211: unlimited
  | Current stacksize for task 212: unlimited
  | Current stacksize for task 213: unlimited
  | Current stacksize for task 214: unlimited
  | Current stacksize for task 215: unlimited
 
  Consistency checks for the contents of control.in are next.
 
  HSE06 screening parameters: omega_HF  =      0.11000000 bohr^-1, and
                              omega_PBE =      0.11000000 bohr^-1.
  MPI_IN_PLACE appears to work with this MPI implementation.
  | Keeping use_mpi_in_place .true. (see manual).
  Explicit treatment of the Coulomb operator is needed, but the RI method is not specified.
  Coulomb operator: Defaulting to 'LVL fast' resolution of identity - RI_type = LVL_fast
  Species Se: Using default value for prodbas_acc =   1.000000E-04.
  Species Se: Using default value max_l_prodbas =    20.
  Species S: Using default value for prodbas_acc =   1.000000E-04.
  Species S: Using default value max_l_prodbas =    20.
  Species Mo: Using default value for prodbas_acc =   1.000000E-04.
  Species Mo: Using default value max_l_prodbas =    20.
  Species W: Using default value for prodbas_acc =   1.000000E-04.
  Species W: Using default value max_l_prodbas =    20.
  Target number of points in a grid batch is not set. Defaulting to  100
  Method for grid partitioning is not set. Defaulting to parallel hash+maxmin partitioning.
  Batch size limit is not set. Defaulting to    200
  By default, will store active basis functions for each batch.
  If in need of memory, prune_basis_once .false. can be used to disable this option.
  communication_type for Hartree potential was not specified.
  Defaulting to calc_hartree .
  Defaulting to Pulay charge density mixer.
  Pulay mixer: Number of relevant iterations not set.
  Defaulting to    8 iterations.
  Pulay mixer: Number of initial linear mixing iterations not set.
  Defaulting to    0 iterations.
  Work space size for distributed Hartree potential not set.
  Defaulting to   0.200000E+03 MB.
  Mixing parameter for charge density mixing has not been set.
  Using default: charge_mix_param =     0.0500.
  The mixing parameter will be adjusted in iteration number     2 of the first full s.c.f. cycle only.
  Mixing parameter for spin density mixing has not been set.
  Using charge_mix_param as default:     0.0500.
  Algorithm-dependent basis array size parameters:
[...]
  |    30       34.078917       -0.078917        7.883959       15.950250       10.197931        0.046778
  |    31       73.845546        0.154454       10.363352       24.747279       24.622685       14.112230
  |    32       34.080407       -0.080407        7.884478       15.954817       10.195055        0.046057
  |    33       34.079674       -0.079674        7.882975       15.951207       10.198493        0.047000
  |    34       73.871716        0.128284       10.366919       24.752822       24.638778       14.113198
  |    35       34.089054       -0.089054        7.887620       15.958288       10.197716        0.045429
  |    36       34.058739       -0.058739        7.880060       15.929523       10.201660        0.047496
  |    37       73.846306        0.153694       10.426292       24.745942       24.575052       14.099019
  |    38       34.075102       -0.075102        7.876211       15.940207       10.206205        0.052479
  |    39       73.872569        0.127431       10.367395       24.752969       24.639015       14.113190
  |    40       34.089060       -0.089060        7.887586       15.958326       10.197718        0.045430
  |    41       34.058527       -0.058527        7.879999       15.929349       10.201679        0.047500
  |    42       73.845516        0.154484       10.363318       24.747314       24.622654       14.112230
  |    43       34.080439       -0.080439        7.884496       15.954826       10.195061        0.046057
  |    44       34.079670       -0.079670        7.882974       15.951207       10.198489        0.046999
  |    45       73.840962        0.159038       10.361402       24.745157       24.623068       14.111336
  |    46       34.079603       -0.079603        7.884534       15.951897       10.196690        0.046483
  |    47       34.077945       -0.077945        7.882835       15.947142       10.200427        0.047542
  |    48       73.846186        0.153814       10.361385       24.742264       24.633028       14.109510
  |    49       34.080888       -0.080888        7.885009       15.951159       10.198041        0.046679
  |    50       34.078849       -0.078849        7.882156       15.945407       10.202977        0.048308
  |    51       73.846587        0.153413       10.426338       24.746028       24.575212       14.099008
  |    52       34.089258       -0.089258        7.887591       15.958516       10.197721        0.045429
  |    53       34.058654       -0.058654        7.880060       15.929449       10.201651        0.047494
  |    54       73.846158        0.153842       10.426279       24.745849       24.575012       14.099019
  |    55       34.089043       -0.089043        7.887570       15.958219       10.197804        0.045450
  |    56       34.058561       -0.058561        7.879997       15.929432       10.201642        0.047490
  |    57       73.846349        0.153651       10.361552       24.742238       24.633054       14.109505
  |    58       34.080752       -0.080752        7.884978       15.951035       10.198056        0.046683
  |    59       34.078706       -0.078706        7.882113       15.945366       10.202929        0.048297
  |    60       73.841323        0.158677       10.360242       24.744316       24.625292       14.111473
  |    61       34.079604       -0.079604        7.884531       15.951885       10.196703        0.046486
  |    62       34.077924       -0.077924        7.882839       15.947143       10.200406        0.047537
  |    63       73.841307        0.158693       10.360226       24.744336       24.625275       14.111469
  |    64       34.079658       -0.079658        7.884548       15.951932       10.196694        0.046483
  |    65       34.077959       -0.077959        7.882848       15.947146       10.200423        0.047541
  |    66       73.846123        0.153877       10.361328       24.742316       24.632973       14.109507
  |    67       34.080533       -0.080533        7.884526       15.954875       10.195072        0.046060
  |    68       34.079690       -0.079690        7.882993       15.951213       10.198486        0.046999
  |    69       73.872452        0.127548       10.367379       24.752934       24.638944       14.113194
  |    70       34.072498       -0.072498        7.883924       15.945973       10.196416        0.046185
  |    71       34.082088       -0.082088        7.884552       15.955211       10.196196        0.046129
  |    72       73.846348        0.153652       10.361524       24.742237       24.633071       14.109515
  |    73       34.080445       -0.080445        7.884492       15.954778       10.195106        0.046069
  |    74       34.079676       -0.079676        7.882984       15.951225       10.198472        0.046996
  |
  | Total     3516.000000       -0.000000
 
  Summary of the per-atom spin analysis:
  |
  |  atom   spin      l=0         l=1         l=2         l=3
  |     1   -0.000000   -0.000000   -0.000000   -0.000000   -0.000000
  |     2   -0.000000    0.000000   -0.000000    0.000000    0.000000
  |     3   -0.000000    0.000000   -0.000000    0.000000    0.000000
  |     4    0.000002   -0.000000    0.000000    0.000002   -0.000000
  |     5   -0.000001   -0.000000   -0.000001    0.000000    0.000000
  |     6   -0.000001   -0.000000   -0.000001    0.000000    0.000000
  |     7   -0.000000   -0.000000   -0.000000   -0.000000   -0.000000
  |     8   -0.000000    0.000000   -0.000000    0.000000    0.000000
  |     9   -0.000000    0.000000   -0.000000    0.000000    0.000000
  |    10    0.000001   -0.000000    0.000000    0.000001   -0.000000
  |    11   -0.000001    0.000000   -0.000001    0.000000    0.000000
  |    12   -0.000001    0.000000   -0.000001    0.000000    0.000000
  |    13    0.000001   -0.000000    0.000000    0.000001   -0.000000
  |    14   -0.000001    0.000000   -0.000001    0.000000    0.000000
  |    15   -0.000001    0.000000   -0.000001    0.000000    0.000000
  |    16    0.000001   -0.000000    0.000000    0.000001   -0.000000
  |    17   -0.000001   -0.000000   -0.000001    0.000000    0.000000
  |    18   -0.000001   -0.000000   -0.000001    0.000000    0.000000
  |    19    0.000001   -0.000000    0.000000    0.000001   -0.000000
  |    20   -0.000001    0.000000   -0.000001    0.000000    0.000000
  |    21   -0.000001   -0.000000   -0.000001    0.000000    0.000000
  |    22    0.000001   -0.000000    0.000000    0.000001   -0.000000
  |    23   -0.000001    0.000000   -0.000001    0.000000    0.000000
  |    24   -0.000001   -0.000000   -0.000001    0.000000    0.000000
  |    25    0.000001   -0.000000    0.000000    0.000001   -0.000000
  |    26   -0.000001   -0.000000   -0.000001    0.000000    0.000000
  |    27   -0.000001   -0.000000   -0.000001    0.000000    0.000000
  |    28    0.000000   -0.000000    0.000000    0.000001   -0.000000
  |    29   -0.000001    0.000000   -0.000001    0.000000    0.000000
  |    30   -0.000001    0.000000   -0.000001    0.000000    0.000000
  |    31    0.000001   -0.000000    0.000000    0.000001   -0.000000
  |    32   -0.000000    0.000000   -0.000000    0.000000    0.000000
  |    33   -0.000000    0.000000   -0.000000    0.000000    0.000000
  |    34    0.000004    0.000000    0.000001    0.000004   -0.000000
  |    35   -0.000001    0.000000   -0.000001    0.000000    0.000000
  |    36   -0.000001   -0.000000   -0.000001    0.000000    0.000000
  |    37   -0.000000   -0.000000   -0.000000    0.000001   -0.000000
  |    38   -0.000000    0.000000   -0.000000    0.000000    0.000000
  |    39    0.000004    0.000000    0.000001    0.000004   -0.000000
  |    40   -0.000001    0.000000   -0.000001    0.000000    0.000000
  |    41   -0.000001   -0.000000   -0.000001    0.000000    0.000000
  |    42    0.000001   -0.000000    0.000000    0.000001   -0.000000
  |    43   -0.000000    0.000000   -0.000000    0.000000    0.000000
  |    44   -0.000000    0.000000   -0.000000    0.000000    0.000000
  |    45   -0.000000   -0.000000   -0.000000   -0.000000   -0.000000
  |    46   -0.000001    0.000000   -0.000001    0.000000    0.000000
  |    47   -0.000001   -0.000000   -0.000001    0.000000    0.000000
  |    48    0.000001   -0.000000    0.000000    0.000001   -0.000000
  |    49   -0.000001   -0.000000   -0.000001    0.000000    0.000000
  |    50   -0.000001   -0.000000   -0.000001    0.000000    0.000000
  |    51   -0.000000   -0.000000   -0.000000    0.000001   -0.000000
  |    52   -0.000001    0.000000   -0.000001    0.000000    0.000000
  |    53   -0.000001   -0.000000   -0.000001    0.000000    0.000000
  |    54   -0.000000   -0.000000   -0.000000    0.000001   -0.000000
  |    55   -0.000001    0.000000   -0.000001    0.000000    0.000000
  |    56   -0.000001   -0.000000   -0.000001    0.000000    0.000000
  |    57    0.000001   -0.000000    0.000000    0.000001   -0.000000
  |    58   -0.000001   -0.000000   -0.000001    0.000000    0.000000
  |    59   -0.000001   -0.000000   -0.000001    0.000000    0.000000
  |    60    0.000002   -0.000000    0.000000    0.000002   -0.000000
  |    61   -0.000001    0.000000   -0.000001    0.000000    0.000000
  |    62   -0.000001   -0.000000   -0.000001    0.000000    0.000000
  |    63    0.000002   -0.000000    0.000000    0.000002   -0.000000
  |    64   -0.000001    0.000000   -0.000001    0.000000    0.000000
  |    65   -0.000001   -0.000000   -0.000001    0.000000    0.000000
  |    66    0.000001   -0.000000    0.000000    0.000001   -0.000000
  |    67   -0.000000    0.000000   -0.000000    0.000000    0.000000
  |    68   -0.000000    0.000000   -0.000000    0.000000    0.000000
  |    69    0.000004    0.000000    0.000001    0.000004   -0.000000
  |    70   -0.000001   -0.000000   -0.000001    0.000000    0.000000
  |    71   -0.000001   -0.000000   -0.000001    0.000000    0.000000
  |    72    0.000001   -0.000000    0.000000    0.000001   -0.000000
  |    73   -0.000000    0.000000   -0.000000    0.000000    0.000000
  |    74   -0.000000    0.000000   -0.000000    0.000000    0.000000
  |
  | Total   -0.000000
 
  Calculating angular momentum projected density of states ...
  | Chemical potential is  -4.604014 eV.
  | writing   projected DOS (shifted by the chemical potential) for species Se to file Se_l_proj_dos_tetrahedron.dat.
  | writing   projected DOS (raw data) for species Se to file Se_l_proj_dos_tetrahedron_raw.dat.
  | writing   projected DOS (shifted by the chemical potential) for species S to file S_l_proj_dos_tetrahedron.dat.
  | writing   projected DOS (raw data) for species S to file S_l_proj_dos_tetrahedron_raw.dat.
  | writing   projected DOS (shifted by the chemical potential) for species Mo to file Mo_l_proj_dos_tetrahedron.dat.
  | writing   projected DOS (raw data) for species Mo to file Mo_l_proj_dos_tetrahedron_raw.dat.
  | writing   projected DOS (shifted by the chemical potential) for species W to file W_l_proj_dos_tetrahedron.dat.
  | writing   projected DOS (raw data) for species W to file W_l_proj_dos_tetrahedron_raw.dat.

  Mulliken analysis                                       :  max(cpu_time)    wall_clock(cpu1)
  | Time for Mulliken analysis (scalar relativistic)      :          1.871               1.942
  | Time for Mulliken analysis (spin-orbit coupled)       :          4.493               4.500
  | Total time for Mulliken analysis                      :          6.363               6.442
------------------------------------------------------------

------------------------------------------------------------------------------
  Final output of selected total energy values:

  The following output summarizes some interesting total energy values
  at the end of a run (AFTER all relaxation, molecular dynamics, etc.).

  | Total energy of the DFT / Hartree-Fock s.c.f. calculation      :      -14578174.643717073 eV
  | Final zero-broadening corrected energy (caution - metals only) :      -14578174.643717073 eV
  | Total energy after non-SC SOC correction (DO NOT USE)          :      -14578218.108783389 eV
  | For reference only, the value of 1 Hartree used in FHI-aims is :             27.211384500 eV
  | For reference only, the overall average (free atom contribution
  | + realspace contribution) of the electrostatic potential after
  | s.c.f. convergence is                                          :             -1.309805083 eV

  Before relying on these values, please be sure to understand exactly which
  total energy value is referred to by a given number. Different objects may
  all carry the same name 'total energy'. Definitions:

  Total energy of the DFT / Hartree-Fock s.c.f. calculation:
  | Note that this energy does not include ANY quantities calculated after the
  | s.c.f. cycle, in particular not ANY RPA, MP2, etc. many-body perturbation terms.

  Final zero-broadening corrected energy:
  | For metallic systems only, a broadening of the occupation numbers at the Fermi
  | level can be extrapolated back to zero broadening by an electron-gas inspired
  | formula. For all systems that are not real metals, this value can be
  | meaningless and should be avoided.

------------------------------------------------------------------------------
  Methods described in the following list of references were used in this FHI-aims run.
  If you publish the results, please make sure to cite these reference if they apply.
  FHI-aims is an academic code, and for our developers (often, Ph.D. students
  and postdocs), scientific credit in the community is essential.
  Thank you for helping us!

  For any use of FHI-aims, please cite:

    Volker Blum, Ralf Gehrke, Felix Hanke, Paula Havu, Ville Havu,
    Xinguo Ren, Karsten Reuter, and Matthias Scheffler
    'Ab initio molecular simulations with numeric atom-centered orbitals'
    Computer Physics Communications 180, 2175-2196 (2009)
    http://doi.org/10.1016/j.cpc.2009.06.022


  For Hartree-Fock, hybrid functionals, or many-body perturbation theory used in your run, please cite:

    Xinguo Ren, Patrick Rinke, Volker Blum, Juergen Wieferink, Alex Tkatchenko,
    Andrea Sanfilippo, Karsten Reuter, and Matthias Scheffler,
    'Resolution-of-identity approach to Hartree-Fock, hybrid density functionals,
    RPA, MP2, and GW with numeric atom-centered orbital basis functions'
    New Journal of Physics 14, 053020 (2012).
    http://doi.org/10.1088/1367-2630/14/5/053020


  The provided symmetry information was generated with SPGlib:

    Atsushi Togo, Yusuke Seto, Dimitar Pashov
    SPGlib 1.7.3 obtained from http://spglib.sourceforge.net
    Copyright (C) 2008 Atsushi Togo


  For second-variational spin-orbit coupling used in your run, please cite:

    William P. Huhn and Volker Blum,
    'One-hundred-three compound band-structure benchmark of post-self-consistent'
    'spin-orbit coupling treatments in density functional theory'
    Phys. Rev. Materials 1, 033803 (2017).


  The ELSI infrastructure was used in your run to solve the Kohn-Sham electronic structure.
  Please check out http://elsi-interchange.org to learn more.
  If scalability is important for your project, please acknowledge ELSI by citing:

    V. W-z. Yu, F. Corsetti, A. Garcia, W. P. Huhn, M. Jacquelin, W. Jia,
    B. Lange, L. Lin, J. Lu, W. Mi, A. Seifitokaldani, A. Vazquez-Mayagoitia,
    C. Yang, H. Yang, and V. Blum
    'ELSI: A unified software interface for Kohn-Sham electronic structure solvers'
    Computer Physics Communications 222, 267-285 (2018).
    http://doi.org/10.1016/j.cpc.2017.09.007


  For the real-space grid partitioning and parallelization used in this calculation, please cite:

    Ville Havu, Volker Blum, Paula Havu, and Matthias Scheffler,
    'Efficient O(N) integration for all-electron electronic structure calculation'
    'using numerically tabulated basis functions'
    Journal of Computational Physics 228, 8367-8379 (2009).
    http://doi.org/10.1016/j.jcp.2009.08.008


  The high-level electronic structure method used in your calculation
  employed our efficient localized resolution of identity for the Coulomb operator.
  Some calculations, especially large-scale hybrid density functional theory,
  are only possible thanks to this development. For this feature, please cite:

    Arvid Ihrig, Juergen Wieferink, Igor Ying Zhang, Matti Ropo, Xinguo Ren,
    Patrick Rinke, Matthias Scheffler, and Volker Blum,
    'Accurate localized resolution of identity approach for linear-scaling
    hybrid density functionals and for many-body perturbation theory'
    New Journal of Physics 117, 093020 (2015).
    http://doi.org/10.1088/1367-2630/17/9/093020

  Of course, there are many other important community references, e.g., those cited in the
  above references. Our list is limited to references that describe implementations in the
  FHI-aims code. The reason is purely practical (length of this list) - please credit others as well.

------------------------------------------------------------
          Leaving FHI-aims.
          Date     :  20220930, Time     :  181845.734

          Computational steps:
          | Number of self-consistency cycles          :           27
          | Number of SCF (re)initializations          :            1

          Detailed time accounting                     :  max(cpu_time)    wall_clock(cpu1)
          | Total time                                  :     6435.430 s        6435.752 s
          | Preparation time                            :        1.474 s           1.473 s
          | Boundary condition initalization            :        1.011 s           1.012 s
          | Grid partitioning                           :        4.938 s           4.939 s
          | Preloading free-atom quantities on grid     :        2.146 s           2.147 s
          | Free-atom superposition energy              :        0.076 s           0.077 s
          | Total time for integrations                 :       62.435 s          62.438 s
          | Product basis setup: Total time             :      639.287 s         639.297 s
          | Total time evaluating exchange matrix       :     5164.393 s        5162.909 s
          | Total time for solution of K.-S. equations  :      289.474 s         289.448 s
          | Total time for density update               :      164.059 s         164.059 s
          | Total time for mixing                       :        0.296 s           0.297 s
          | Total time for Hartree multipole update     :        0.350 s           0.351 s
          | Total time for Hartree multipole sum        :       46.349 s          46.346 s
          | Total time for total energy evaluation      :        0.086 s           0.103 s
          | Total time for scaled ZORA corrections      :        0.000 s           0.000 s
          | Total time for vdW correction               :        9.662 s           9.663 s
          | Total time for perturbative SOC             :       43.286 s          43.286 s
          | Total time for Mulliken analysis            :        6.408 s           6.442 s

          Partial memory accounting:
          | Residual value for overall tracked memory usage across tasks:     0.000000 MB (should be 0.000000 MB)
          | Peak values for overall tracked memory usage:
          |   Minimum:      484.439 MB (on task  66 after allocating perturbation_matrix)
          |   Maximum:      840.028 MB (on task 207 after allocating perturbation_matrix)
          |   Average:      624.314 MB
          | Largest tracked array allocation:
          |   Minimum:      100.385 MB (ovlp3fn for atom on task  98)
          |   Maximum:      449.911 MB (ovlp3fn for atom on task 191)
          |   Average:      199.899 MB
          Note:  These values currently only include a subset of arrays which are explicitly tracked.
          The "true" memory usage will be greater.

          Have a nice day.
------------------------------------------------------------
