------------------------------------------------------------
          Invoking FHI-aims ...

          When using FHI-aims, please cite the following reference:

            Volker Blum, Ralf Gehrke, Felix Hanke, Paula Havu,
            Ville Havu, Xinguo Ren, Karsten Reuter, and Matthias Scheffler,
            'Ab Initio Molecular Simulations with Numeric Atom-Centered Orbitals',
            Computer Physics Communications 180, 2175-2196 (2009)

          In addition, many other developments in FHI-aims are likely important for
          your particular application. A partial list of references is given at the end of
          this file. Thank you for giving credit to the authors of these developments.

          For any questions about FHI-aims, please visit our slack channel at

            https://fhi-aims.slack.com

          and our main development and support site at

            https://aims-git.rz-berlin.mpg.de .

          The latter site, in particular, has a wiki to collect information, as well
          as an issue tracker to log discussions, suggest improvements, and report issues
          or bugs. https://aims-git.rz-berlin.mpg.de is also the main development site
          of the project and all new and updated code versions can be obtained there.
          Please send an email to aims-coordinators@fhi-berlin.mpg.de and we will add
          you to these sites. They are for you and everyone is welcome there.

------------------------------------------------------------



  Date     :  20220913, Time     :  171815.854
  Time zero on CPU 1             :   0.331480800000000E+01  s.
  Internal wall clock time zero  :           432321495.854  s.

  FHI-aims created a unique identifier for this run for later identification
  aims_uuid : D02DEB17-6829-4B88-AA48-CCF2D35CE967

  Build configuration of the current instance of FHI-aims
  -------------------------------------------------------
  FHI-aims version      : 220117
  Commit number         : 0c0e6afe2
  CMake host system     : Linux-5.3.18-24.99-default
  CMake version         : 3.22.0
  Fortran compiler      : /mpcdf/soft/SLE_15/packages/x86_64/intel_oneapi/2021.4/mpi/2021.4.0/bin/mpiifort (Intel) version 2021.4.0.20210910
  Fortran compiler flags: -O3 -ip -fp-model precise
  C compiler            : /mpcdf/soft/SLE_15/packages/x86_64/intel/2021.4.0/bin/icc (Intel) version 2021.4.0.20210910
  C compiler flags      : -O3 -ip -fp-model precise
  C++ compiler          : /mpcdf/soft/SLE_15/packages/x86_64/intel/2021.4.0/bin/icpc (Intel) version 2021.4.0.20210910
  C++ compiler flags    : -O3 -ip -fp-model precise
  Using MPI
  Using ScaLAPACK
  Using LibXC
  Using i-PI
  Using RLSY
  Linking against: /mpcdf/soft/SLE_15/packages/x86_64/intel_oneapi/2021.4/mkl/latest/lib/intel64/libmkl_intel_lp64.so
                   /mpcdf/soft/SLE_15/packages/x86_64/intel_oneapi/2021.4/mkl/latest/lib/intel64/libmkl_sequential.so
                   /mpcdf/soft/SLE_15/packages/x86_64/intel_oneapi/2021.4/mkl/latest/lib/intel64/libmkl_core.so
                   /mpcdf/soft/SLE_15/packages/x86_64/intel_oneapi/2021.4/mkl/latest/lib/intel64/libmkl_blacs_intelmpi_lp64.so
                   /mpcdf/soft/SLE_15/packages/x86_64/intel_oneapi/2021.4/mkl/latest/lib/intel64/libmkl_scalapack_lp64.so

  Using      216 parallel tasks.
  Task        0 on host ravg1041 reporting.
  Task        1 on host ravg1041 reporting.
  Task        2 on host ravg1041 reporting.
  Task        3 on host ravg1041 reporting.
  Task        4 on host ravg1041 reporting.
  Task        5 on host ravg1041 reporting.
  Task        6 on host ravg1041 reporting.
  Task        7 on host ravg1041 reporting.
  Task        8 on host ravg1041 reporting.
  Task        9 on host ravg1041 reporting.
  Task       10 on host ravg1041 reporting.
  Task       11 on host ravg1041 reporting.
  Task       12 on host ravg1041 reporting.
  Task       13 on host ravg1041 reporting.
  Task       14 on host ravg1041 reporting.
  Task       15 on host ravg1041 reporting.
  Task       16 on host ravg1041 reporting.
  Task       17 on host ravg1041 reporting.
  Task       18 on host ravg1041 reporting.
  Task       19 on host ravg1041 reporting.
  Task       20 on host ravg1041 reporting.
  Task       21 on host ravg1041 reporting.
  Task       22 on host ravg1041 reporting.
  Task       23 on host ravg1041 reporting.
  Task       24 on host ravg1041 reporting.
  Task       25 on host ravg1041 reporting.
  Task       26 on host ravg1041 reporting.
  Task       27 on host ravg1041 reporting.
  Task       28 on host ravg1041 reporting.
  Task       29 on host ravg1041 reporting.
  Task       30 on host ravg1041 reporting.
  Task       31 on host ravg1041 reporting.
  Task       32 on host ravg1041 reporting.
  Task       33 on host ravg1041 reporting.
  Task       34 on host ravg1041 reporting.
  Task       35 on host ravg1041 reporting.
  Task       36 on host ravg1041 reporting.
  Task       37 on host ravg1041 reporting.
  Task       38 on host ravg1041 reporting.
  Task       39 on host ravg1041 reporting.
  Task       40 on host ravg1041 reporting.
  Task       41 on host ravg1041 reporting.
  Task       42 on host ravg1041 reporting.
  Task       43 on host ravg1041 reporting.
  Task       44 on host ravg1041 reporting.
  Task       45 on host ravg1041 reporting.
  Task       46 on host ravg1041 reporting.
  Task       47 on host ravg1041 reporting.
  Task       48 on host ravg1041 reporting.
  Task       49 on host ravg1041 reporting.
  Task       50 on host ravg1041 reporting.
  Task       51 on host ravg1041 reporting.
  Task       52 on host ravg1041 reporting.
  Task       53 on host ravg1041 reporting.
  Task       54 on host ravg1041 reporting.
  Task       55 on host ravg1041 reporting.
  Task       56 on host ravg1041 reporting.
  Task       57 on host ravg1041 reporting.
  Task       58 on host ravg1041 reporting.
  Task       59 on host ravg1041 reporting.
  Task       60 on host ravg1041 reporting.
  Task       61 on host ravg1041 reporting.
  Task       62 on host ravg1041 reporting.
  Task       63 on host ravg1041 reporting.
  Task       64 on host ravg1041 reporting.
  Task       65 on host ravg1041 reporting.
  Task       66 on host ravg1041 reporting.
  Task       67 on host ravg1041 reporting.
  Task       68 on host ravg1041 reporting.
  Task       69 on host ravg1041 reporting.
  Task       70 on host ravg1041 reporting.
  Task       71 on host ravg1041 reporting.
  Task       72 on host ravg1042 reporting.
  Task       73 on host ravg1042 reporting.
  Task       74 on host ravg1042 reporting.
  Task       75 on host ravg1042 reporting.
  Task       76 on host ravg1042 reporting.
  Task       77 on host ravg1042 reporting.
  Task       78 on host ravg1042 reporting.
  Task       79 on host ravg1042 reporting.
  Task       80 on host ravg1042 reporting.
  Task       81 on host ravg1042 reporting.
  Task       82 on host ravg1042 reporting.
  Task       83 on host ravg1042 reporting.
  Task       84 on host ravg1042 reporting.
  Task       85 on host ravg1042 reporting.
  Task       86 on host ravg1042 reporting.
  Task       87 on host ravg1042 reporting.
  Task       88 on host ravg1042 reporting.
  Task       89 on host ravg1042 reporting.
  Task       90 on host ravg1042 reporting.
  Task       91 on host ravg1042 reporting.
  Task       92 on host ravg1042 reporting.
  Task       93 on host ravg1042 reporting.
  Task       94 on host ravg1042 reporting.
  Task       95 on host ravg1042 reporting.
  Task       96 on host ravg1042 reporting.
  Task       97 on host ravg1042 reporting.
  Task       98 on host ravg1042 reporting.
  Task       99 on host ravg1042 reporting.
  Task      100 on host ravg1042 reporting.
  Task      101 on host ravg1042 reporting.
  Task      102 on host ravg1042 reporting.
  Task      103 on host ravg1042 reporting.
  Task      104 on host ravg1042 reporting.
  Task      105 on host ravg1042 reporting.
  Task      106 on host ravg1042 reporting.
  Task      107 on host ravg1042 reporting.
  Task      108 on host ravg1042 reporting.
  Task      109 on host ravg1042 reporting.
  Task      110 on host ravg1042 reporting.
  Task      111 on host ravg1042 reporting.
  Task      112 on host ravg1042 reporting.
  Task      113 on host ravg1042 reporting.
  Task      114 on host ravg1042 reporting.
  Task      115 on host ravg1042 reporting.
  Task      116 on host ravg1042 reporting.
  Task      117 on host ravg1042 reporting.
  Task      118 on host ravg1042 reporting.
  Task      119 on host ravg1042 reporting.
  Task      120 on host ravg1042 reporting.
  Task      121 on host ravg1042 reporting.
  Task      122 on host ravg1042 reporting.
  Task      123 on host ravg1042 reporting.
  Task      124 on host ravg1042 reporting.
  Task      125 on host ravg1042 reporting.
  Task      126 on host ravg1042 reporting.
  Task      127 on host ravg1042 reporting.
  Task      128 on host ravg1042 reporting.
  Task      129 on host ravg1042 reporting.
  Task      130 on host ravg1042 reporting.
  Task      131 on host ravg1042 reporting.
  Task      132 on host ravg1042 reporting.
  Task      133 on host ravg1042 reporting.
  Task      134 on host ravg1042 reporting.
  Task      135 on host ravg1042 reporting.
  Task      136 on host ravg1042 reporting.
  Task      137 on host ravg1042 reporting.
  Task      138 on host ravg1042 reporting.
  Task      139 on host ravg1042 reporting.
  Task      140 on host ravg1042 reporting.
  Task      141 on host ravg1042 reporting.
  Task      142 on host ravg1042 reporting.
  Task      143 on host ravg1042 reporting.
  Task      144 on host ravg1043 reporting.
  Task      145 on host ravg1043 reporting.
  Task      146 on host ravg1043 reporting.
  Task      147 on host ravg1043 reporting.
  Task      148 on host ravg1043 reporting.
  Task      149 on host ravg1043 reporting.
  Task      150 on host ravg1043 reporting.
  Task      151 on host ravg1043 reporting.
  Task      152 on host ravg1043 reporting.
  Task      153 on host ravg1043 reporting.
  Task      154 on host ravg1043 reporting.
  Task      155 on host ravg1043 reporting.
  Task      156 on host ravg1043 reporting.
  Task      157 on host ravg1043 reporting.
  Task      158 on host ravg1043 reporting.
  Task      159 on host ravg1043 reporting.
  Task      160 on host ravg1043 reporting.
  Task      161 on host ravg1043 reporting.
  Task      162 on host ravg1043 reporting.
  Task      163 on host ravg1043 reporting.
  Task      164 on host ravg1043 reporting.
  Task      165 on host ravg1043 reporting.
  Task      166 on host ravg1043 reporting.
  Task      167 on host ravg1043 reporting.
  Task      168 on host ravg1043 reporting.
  Task      169 on host ravg1043 reporting.
  Task      170 on host ravg1043 reporting.
  Task      171 on host ravg1043 reporting.
  Task      172 on host ravg1043 reporting.
  Task      173 on host ravg1043 reporting.
  Task      174 on host ravg1043 reporting.
  Task      175 on host ravg1043 reporting.
  Task      176 on host ravg1043 reporting.
  Task      177 on host ravg1043 reporting.
  Task      178 on host ravg1043 reporting.
  Task      179 on host ravg1043 reporting.
  Task      180 on host ravg1043 reporting.
  Task      181 on host ravg1043 reporting.
  Task      182 on host ravg1043 reporting.
  Task      183 on host ravg1043 reporting.
  Task      184 on host ravg1043 reporting.
  Task      185 on host ravg1043 reporting.
  Task      186 on host ravg1043 reporting.
  Task      187 on host ravg1043 reporting.
  Task      188 on host ravg1043 reporting.
  Task      189 on host ravg1043 reporting.
  Task      190 on host ravg1043 reporting.
  Task      191 on host ravg1043 reporting.
  Task      192 on host ravg1043 reporting.
  Task      193 on host ravg1043 reporting.
  Task      194 on host ravg1043 reporting.
  Task      195 on host ravg1043 reporting.
  Task      196 on host ravg1043 reporting.
  Task      197 on host ravg1043 reporting.
  Task      198 on host ravg1043 reporting.
  Task      199 on host ravg1043 reporting.
  Task      200 on host ravg1043 reporting.
  Task      201 on host ravg1043 reporting.
  Task      202 on host ravg1043 reporting.
  Task      203 on host ravg1043 reporting.
  Task      204 on host ravg1043 reporting.
  Task      205 on host ravg1043 reporting.
  Task      206 on host ravg1043 reporting.
  Task      207 on host ravg1043 reporting.
  Task      208 on host ravg1043 reporting.
  Task      209 on host ravg1043 reporting.
  Task      210 on host ravg1043 reporting.
  Task      211 on host ravg1043 reporting.
  Task      212 on host ravg1043 reporting.
  Task      213 on host ravg1043 reporting.
  Task      214 on host ravg1043 reporting.
  Task      215 on host ravg1043 reporting.

  Performing system and environment tests:
  | Environment variable OMP_NUM_THREADS correctly set to 1.
  | Checking for ScaLAPACK...
  | Testing pdtran()...
  | All pdtran() tests passed.

  Obtaining array dimensions for all initial allocations:
  
  -----------------------------------------------------------------------
  Parsing control.in (first pass over file, find array dimensions only).
  The contents of control.in will be repeated verbatim below
  unless switched off by setting 'verbatim_writeout .false.' .
  in the first line of control.in .
  -----------------------------------------------------------------------
  
  xc                 hse06  0.11
  hse_unit b
  spin               collinear
  default_initial_moment 1
  charge      0.0
  relativistic       atomic_zora scalar
  #elsi_restart read
  # SCF settings
  relax_geometry bfgs 1E-3
  #relax_unit_cell fixed_angles
  use_symmetric_forces .true.
  occupation_type gaussian       0.1
  # k-grid settings  (to be adjusted)
  k_grid  4 4 1
  #empty_states 8
  use_dipole_correction
  include_spin_orbit non_self_consistent
  # sc_accuracy_rho    1E-4
  #    sc_accuracy_eev    1E-3
  #    sc_accuracy_etot   1E-4
  #    sc_accuracy_forces 1E-2
  many_body_dispersion_nl    beta=0.83
  ################################################################################
  #
  #  FHI-aims code project
  #  Volker Blum, 2018
  #
  #  Suggested "intermediate" defaults for Se atom (to be pasted into control.in file)
  #
  #  2020/09/15 These "intermediate" settings are identical to past "tight" defaults
  #             and differ only in the "g" function that is now included in "tight".
  #
  ################################################################################
    species        Se
  #     global species definitions
      nucleus             34
      mass                78.96
  #
      l_hartree           6
  #
      cut_pot             4.0          2.0  1.0
      basis_dep_cutoff    1e-4
  #
      radial_base         55 7.0
      radial_multiplier   2
      angular_grids       specified
        division   0.0830  110
        division   0.1357  194
        division   0.7377  302
        division   0.8610  434
  #      division   0.9640  590
  #      division   1.0773  770
  #      division   2.5539  974
  #      outer_grid  974
        outer_grid  434
  ################################################################################
  #
  #  Definition of "minimal" basis
  #
  ################################################################################
  #     valence basis states
      valence      4  s   2.
      valence      4  p   4.
      valence      3  d  10.
  #     ion occupancy
      ion_occ      4  s   1.
      ion_occ      4  p   3.
      ion_occ      3  d  10.
  ################################################################################
  #
  #  Suggested additional basis functions. For production calculations,
  #  uncomment them one after another (the most important basis functions are
  #  listed first).
  #
  #  Constructed for dimers: 1.85 A, 2.15 A, 2.50 A, 3.00 A, 4.00 A
  #
  ################################################################################
  #  "First tier" - improvements: -336.21 meV to -36.85 meV
       hydro 3 d 4.3
       hydro 2 p 1.6
       hydro 4 f 7.2
       ionic 4 s auto
  #  "Second tier" - improvements: -14.39 meV to -1.49 meV
  #     hydro 5 g 10.4
  #     hydro 4 p 4.5
  #     hydro 4 d 6.2
  #     hydro 4 f 11.2
  #     hydro 1 s 0.65
  #     hydro 6 h 15.2
  #  "Third tier" - improvements: -0.46 meV and below
  #     hydro 5 g 14.4
  #     ionic 4 d auto
  #     hydro 4 f 22.4
  #     hydro 5 f 7.4
  #     hydro 5 p 8
  #     hydro 5 s 9.4
  #  "Fourth tier" - improvements: -0.12 meV and below
  #     hydro 5 d 11.6
  #     hydro 6 h 18
  #     hydro 4 p 4
  #     hydro 5 f 16
  #     hydro 4 s 3.9
  
  
  ################################################################################
  #
  #  FHI-aims code project
  #  Volker Blum, 2018
  #
  #  Suggested "intermediate" defaults for S atom (to be pasted into control.in file)
  #
  ################################################################################
    species        S
  #     global species definitions
      nucleus             16
      mass                32.065
  #
      l_hartree           6
  #
      cut_pot             4.0          2.0  1.0
      basis_dep_cutoff    1e-4
  #
      radial_base         44 7.0
      radial_multiplier   2
      angular_grids       specified
        division   0.4665  110
        division   0.5810  194
        division   0.7139  302
        division   0.8274  434
  #      division   0.9105  590
  #      division   1.0975  770
  #      division   1.2028  974
  #      outer_grid  974
        outer_grid  434
  ################################################################################
  #
  #  Definition of "minimal" basis
  #
  ################################################################################
  #     valence basis states
      valence      3  s   2.
      valence      3  p   4.
  #     ion occupancy
      ion_occ      3  s   1.
      ion_occ      3  p   3.
  ################################################################################
  #
  #  Suggested additional basis functions. For production calculations,
  #  uncomment them one after another (the most important basis functions are
  #  listed first).
  #
  #  Constructed for dimers: 1.6 A, 1.9 A, 2.5 A, 3.25 A, 4.0 A
  #
  ################################################################################
  #  "First tier" - improvements: -652.81 meV to -45.53 meV
       ionic 3 d auto
       hydro 2 p 1.8
       hydro 4 f 7
       ionic 3 s auto
  #  "Second tier" - improvements: -30.20 meV to -1.74 meV
  #     hydro 4 d 6.2
  for_aux     hydro 5 g 10.8
  #     hydro 4 p 4.9
  #     hydro 5 f 10
  #     hydro 1 s 0.8
  #  "Third tier" - improvements: -1.04 meV to -0.20 meV
  #     hydro 3 d 3.9
  #     hydro 3 d 2.7
  #     hydro 5 g 12
  #     hydro 4 p 10.4
  #     hydro 5 f 12.4
  #     hydro 2 s 1.9
  #  "Fourth tier" - improvements: -0.35 meV to -0.06 meV
  #     hydro 4 d 10.4
  #     hydro 4 p 7.2
  #     hydro 4 d 10
  #     hydro 5 g 19.2
  #     hydro 4 s 12
  
  ################################################################################
  #
  #  FHI-aims code project
  # Volker Blum, Fritz Haber Institute Berlin, 2009
  #
  #  Suggested "intermediate" defaults for Mo atom (to be pasted into control.in file)
  #
  #  See https://aaltodoc.aalto.fi/handle/123456789/33620 for the report these
  #  setting are based on
  ################################################################################
    species        Mo
  #     global species definitions
      nucleus             42
      mass                95.94
  #
      l_hartree           6
  #
      cut_pot             4.0  2.0  1.0
      basis_dep_cutoff    1e-4
  #
      radial_base         59 7.0
      radial_multiplier   2
      angular_grids specified
        division   0.3117   50
        division   0.6750  110
        division   1.0351  194
        division   1.2073  302
        division   1.6402  434
  #      division   1.9185  590
  #      division   2.0237  770
  #      division   2.0980  974
  #      division   2.7972 1202
  #      outer_grid  974
        outer_grid  434
  ################################################################################
  #
  #  Definition of "minimal" basis
  #
  ################################################################################
  #     valence basis states
      valence      5  s   1.
      valence      4  p   6.
      valence      4  d   5.
  #     ion occupancy
      ion_occ     5  s   0.
      ion_occ     4  p   6.
      ion_occ     4  d   4.
  ################################################################################
  #
  #  Suggested additional basis functions. For production calculations,
  #  uncomment them one after another (the most important basis functions are
  #  listed first).
  #
  #  Constructed for dimers: 1.675 A, 1.9 A, 2.375 A, 3.00 A, 4.00 A
  #
  ################################################################################
  #  "First tier"  - max. impr. -711.23  meV, min. impr. -21.07 meV
       hydro 4 f 8.4
       hydro 3 d 2.8
       ionic 5 p auto
       for_aux hydro 5 g 12
       ionic 5 s auto
  #  "Second tier" - max. impr. -39.38  meV, min. impr. -2.68 meV
  #     hydro 4 f 12.4
  #     hydro 3 d 3.3
  #     hydro 6 h 17.2
  #     hydro 4 f 7.6
  #     hydro 3 p 3.0
  #     hydro 1 s 0.65
  #  "Third tier"  - max. impr. -5.50 meV, min. impr. -0.47 meV
  #     hydro 4 f 29.2
  #     hydro 5 g 11.2
  #     hydro 3 d 6.8
  #     hydro 6 h 14.8
  #     hydro 2 p 2.3
  #     hydro 4 s 3.8
  #  "Fourth tier"  - max. impr. -0.58 meV, min. impr. -0.19 meV
  #     hydro 5 f 6.8
  #     hydro 5 d 14.8
  #     hydro 6 s 7.8
  #     hydro 5 g 20.8
  #     hydro 5 d 10.4
  #     hydro 5 p 9.8
  #  Further functions - -0.17 meV and below
  #     hydro 5 d 3.2
  ################################################################################
  #
  #  FHI-aims code project
  #  Volker Blum, Maria Dragoumi, Sebastian Kokott 2020
  #
  #  Suggested "intermediate" defaults for W atom (to be pasted into control.in file)
  #
  ################################################################################
    species          W
  #     global species definitions
      nucleus        74
      mass           183.84
  #
      l_hartree      6
  #
      cut_pot        4.0  2.0  1.0
      basis_dep_cutoff    1e-4
  #
      radial_base    71  7.0
      radial_multiplier  2
      angular_grids specified
        division   0.2901   50
        division   0.6986  110
        division   1.0528  194
        division   1.2659  302
        division   1.5223  434
  #      division   1.8111  590
  #      division   2.0105  770
  #      division   2.0413  974
  #      division   2.8804 1202
  #      outer_grid  974
        outer_grid  434
  ################################################################################
  #
  #  Definition of "minimal" basis
  #
  ################################################################################
  #     valence basis states
      valence      6  s   2.
      valence      5  p   6.
      valence      5  d   4.
      valence      4  f  14.
  #     ion occupancy
      ion_occ      6  s   1.
      ion_occ      5  p   6.
      ion_occ      5  d   3.
      ion_occ      4  f  14.
  ################################################################################
  #
  #  Suggested additional basis functions. For production calculations,
  #  uncomment them one after another (the most important basis functions are
  #  listed first).
  #
  #  Constructed for dimers: 1.775, 1.99, 2.50, 3.25, 4.50 AA
  #
  ################################################################################
  #
  #  "First tier" - improvements: -603.77 meV to -28.99 meV
       hydro 4 f 7.8
       hydro 4 d 5.8
       ionic 6 p auto
    for_aux   hydro 5 g 12.4
       ionic 6 s auto
  #  "Second tier" - improvements: -28.30 meV to -1.31 meV
  #     hydro 6 h 16.8
  #     ionic 5 d auto
  #     hydro 4 f 8.6
  #     hydro 5 g 16.8
  #     hydro 5 d 8.4
  #     hydro 3 p 3.3
  #     hydro 1 s 0.55
  #  "Third tier" - max. impr. -1.79 meV, min. impr. -0.26 meV
  #     hydro 5 f 10.8
  #     hydro 5 g 34.4
  #     hydro 6 h 20.8
  #     hydro 5 g 12.8
  #     hydro 2 p 1.6
  #     hydro 4 s 4.7
  #     hydro 6 d 18.4
  #  "Fourth tier" -0.46 max. impr. - meV, min. impr. -0.09 meV
  #     hydro 6 h 21.6
  #     hydro 5 f 22.4
  #     hydro 4 f 4
  #     hydro 5 p 9.6
  #     hydro 6 d 17.2
  #     hydro 3 p 5.2
  #     hydro 5 g 4.7
  #     hydro 6 s 7.6
  
  -----------------------------------------------------------------------
  Completed first pass over input file control.in .
  -----------------------------------------------------------------------
  
  
  -----------------------------------------------------------------------
  Parsing geometry.in (first pass over file, find array dimensions only).
  The contents of geometry.in will be repeated verbatim below
  unless switched off by setting 'verbatim_writeout .false.' .
  in the first line of geometry.in .
  -----------------------------------------------------------------------
  
  #
  # This is the geometry file that corresponds to the current relaxation step.
  # If you do not want this file to be written, set the "write_restart_geometry" flag to .false.
  #  aims_uuid : 93FB0372-C82D-4EEF-A9D5-5E7DBDBEDB9B
  #
    set_vacuum_level         0.690485
  lattice_vector     16.35742505      0.00000000      0.00000000
  lattice_vector     -8.17073830     14.17072870      0.00000000
  lattice_vector      0.00000000      0.00000000    103.34910518
  atom      -0.00150801      0.94100588     51.66279767 W
  atom       1.63413797      1.88482889     53.33816965 Se
  atom       1.63512345      1.88129311     49.98771028 Se
  atom      -1.63563468      3.77399425     51.66123655 W
  atom       0.00258704      4.72004534     53.33226730 Se
  atom       0.00199856      4.71973883     49.98958461 Se
  atom      -3.26877997      6.60752468     51.66279159 W
  atom      -1.63379558      7.55247517     53.33816718 Se
  atom      -1.63635238      7.55513690     49.98772511 Se
  atom      -4.90055235      9.44160463     51.66464109 W
  atom      -3.26684130     10.38756821     53.34086003 Se
  atom      -3.26686097     10.38906668     49.99028431 Se
  atom      -6.53698676     12.27967361     51.66460165 W
  atom      -4.90110799     13.22189965     53.34082570 Se
  atom      -4.89980547     13.22112394     49.99027396 Se
  atom       3.26871301      0.93898191     51.66457233 W
  atom       4.90708999      1.89055970     53.33425320 Se
  atom       4.90705666      1.88463345     49.99327960 Se
  atom       1.64227794      3.77053970     51.66016704 W
  atom       3.26919083      4.71809746     53.34157078 Se
  atom       3.26957045      4.70495372     49.97179414 Se
  atom       0.00198127      6.61541822     51.66019117 W
  atom       1.63585543      7.55090199     53.34161175 Se
  atom       1.62464625      7.55785719     49.97180804 Se
  atom      -1.63382223      9.44158942     51.66460668 W
  atom       0.00926236     10.38501814     53.33426508 Se
  atom       0.00413375     10.38794423     49.99332499 Se
  atom      -3.26557735     12.27697483     51.66610491 W
  atom      -1.62938815     13.22191311     53.34080791 Se
  atom      -1.63071577     13.22111719     49.99025094 Se
  atom       6.54476249      0.93899268     51.66454889 W
  atom       8.18000626      1.88485758     53.33812733 Se
  atom       8.17899278      1.88128088     49.98766706 Se
  atom       4.90834294      3.78382906     51.66009661 W
  atom       6.54814788      4.71819894     53.34153720 Se
  atom       6.54768256      4.70501211     49.97176304 Se
  atom       3.22940721      6.58281290     51.64845890 W
  atom       4.91024024      7.55351620     53.23374610 Se
  atom       4.91050837      7.55349246     55.47879763 Se
  atom       4.91020462      7.55352107     50.01845838 Se
  atom       1.64814853      9.43815842     51.66014330 W
  atom       3.27694736     10.39154357     53.34157419 Se
  atom       3.26531739     10.39774136     49.97179957 Se
  atom       0.00580850     12.27966058     51.66456293 W
  atom       1.64234043     13.22332459     53.33814614 Se
  atom       1.63874858     13.22420542     49.98768620 Se
  atom       9.81498488      0.94100825     51.66275908 W
  atom      11.45089162      1.88576492     53.33683313 Se
  atom      11.44993886      1.88521358     49.98682078 Se
  atom       8.17432880      3.77055589     51.66011822 W
  atom       9.81470576      4.72006672     53.33222219 Se
  atom       9.81529953      4.71974667     49.98956749 Se
  atom       6.59037091      6.58288896     51.64841325 W
  atom       8.18463204      7.55088805     53.34158701 Se
  atom       8.19584629      7.55791657     49.97177747 Se
  atom       4.91158086      9.49450625     51.64846289 W
  atom       6.54679877     10.39155280     53.34159994 Se
  atom       6.55842340     10.39779010     49.97181229 Se
  atom       3.27115695     12.27427149     51.66013669 W
  atom       4.91342500     13.22049755     53.33224437 Se
  atom       4.91343554     13.22116159     49.98957104 Se
  atom      13.08543417      0.94155168     51.66122476 W
  atom      14.72062518      1.88575203     53.33684718 Se
  atom      14.72162099      1.88520559     49.98684331 Se
  atom      11.45227869      3.77399648     51.66120792 W
  atom      13.08734479      4.71839038     53.33685375 Se
  atom      13.08737151      4.71953353     49.98684212 Se
  atom       9.81784974      6.61544989     51.66012566 W
  atom      11.45426682      7.55246752     53.33816837 Se
  atom      11.45688659      7.55517648     49.98772766 Se
  atom       8.17490863      9.43818976     51.66014154 W
  atom       9.81444448     10.38501918     53.33430835 Se
  atom       9.81958655     10.38797435     49.99336605 Se
  atom       6.55504362     12.27428702     51.66018785 W
  atom       8.18454604     13.22329996     53.33817033 Se
  atom       8.18813445     13.22420112     49.98771637 Se
  #
  # What follows is the current estimated Hessian matrix constructed by the BFGS algorithm.
  # This is NOT the true Hessian matrix of the system.
  # If you do not want this information here, switch it off using the "hessian_to_restart_geometry" keyword.
  #
  
  -----------------------------------------------------------------------
  Completed first pass over input file geometry.in .
  -----------------------------------------------------------------------
  

  Basic array size parameters:
  | Number of species                 :        4
  | Number of atoms                   :       76
  | Number of lattice vectors         :        3
  | Max. basis fn. angular momentum   :        4
  | Max. atomic/ionic basis occupied n:        6
  | Max. number of basis fn. types    :        3
  | Max. radial fns per species/type  :       14
  | Max. logarithmic grid size        :     1483
  | Max. radial integration grid size :      143
  | Max. angular integration grid size:      434
  | Max. angular grid division number :        8
  | Radial grid for Hartree potential :     1483
  | Number of spin channels           :        2

------------------------------------------------------------
          Reading file control.in.
------------------------------------------------------------

  XC: Using HSE-functional with OMEGA =  0.110000E+00 <units>.
  XC: For the actual units (bohr^-1 or Angstrom^-1), see below.
  hse_unit: Unit for the HSE06 hybrid functional screening parameter set to bohr^(-1).
  Spin treatment: Spin density functional theory - collinear spins.
  Initial spin moment per atom:   1.0000
  Charge =   0.000000E+00: Neutral system requested explicitly.
  Scalar relativistic treatment of kinetic energy: on-site free-atom approximation to ZORA.
  Geometry relaxation: Modified BFGS - TRM (trust radius method) for lattice optimization.
  Convergence accuracy for geometry relaxation: Maximum force <   0.100000E-02 eV/A.
  Occupation type: Gaussian broadening, width =   0.100000E+00 eV.
  Found k-point grid:         4         4         1
  Using dipole correction.
  Calculating non-self-consistent second-variational spin-orbit coupling after scf-cycle
  You have request a SOC run with spin-polarization.
  symmetry_reduced_k_grid will be turned off.
  Using libMBD for calculating MBD and TS energies
 
  Reading configuration options for species Se                  .
  | Found nuclear charge :  34.0000
  | Found atomic mass :    78.9600000000000      amu
  | Found l_max for Hartree potential  :   6
  | Found cutoff potl. onset [A], width [A], scale factor :    4.00000    2.00000    1.00000
  | Threshold for basis-dependent cutoff potential is   0.100000E-03
  | Found data for basic radial integration grid :    55 points, outermost radius =    7.000 A
  | Found multiplier for basic radial grid :   2
  | Found angular grid specification: user-specified.
  | Specified grid contains     5 separate shells.
  | Check grid settings after all constraints further below.
  | Found free-atom valence shell :  4 s   2.000
  | Found free-atom valence shell :  4 p   4.000
  | Found free-atom valence shell :  3 d  10.000
  | Found free-ion valence shell :  4 s   1.000
  | Found free-ion valence shell :  4 p   3.000
  | Found free-ion valence shell :  3 d  10.000
  | Found hydrogenic basis function :  3 d   4.300
  | Found hydrogenic basis function :  2 p   1.600
  | Found hydrogenic basis function :  4 f   7.200
  | Found ionic basis function :  4 s , default cutoff radius.
  Species Se                  : Missing cutoff potential type.
  Defaulting to exp(1/x)/(1-x)^2 type cutoff potential.
  Species Se: No 'logarithmic' tag. Using default grid for free atom:
  | Default logarithmic grid data [bohr] : 0.1000E-03 0.1000E+03 0.1012E+01
  | Will include ionic basis functions of  2.0-fold positive Se                   ion.
  Species Se: On-site basis accuracy parameter (for Gram-Schmidt orthonormalisation) not specified.
  Using default value basis_acc =  0.1000000E-03.
  Species Se                  : Using default innermost maximum threshold i_radial=  2 for radial functions.
  Species Se                  : Default cutoff onset for free atom density etc. : 0.40000000E+01 AA.
  Species Se                  : Basic radial grid will be enhanced according to radial_multiplier =   2, to contain   111 grid points.
 
  Reading configuration options for species S                   .
  | Found nuclear charge :  16.0000
  | Found atomic mass :    32.0650000000000      amu
  | Found l_max for Hartree potential  :   6
  | Found cutoff potl. onset [A], width [A], scale factor :    4.00000    2.00000    1.00000
  | Threshold for basis-dependent cutoff potential is   0.100000E-03
  | Found data for basic radial integration grid :    44 points, outermost radius =    7.000 A
  | Found multiplier for basic radial grid :   2
  | Found angular grid specification: user-specified.
  | Specified grid contains     5 separate shells.
  | Check grid settings after all constraints further below.
  | Found free-atom valence shell :  3 s   2.000
  | Found free-atom valence shell :  3 p   4.000
  | Found free-ion valence shell :  3 s   1.000
  | Found free-ion valence shell :  3 p   3.000
  | Found ionic basis function :  3 d , default cutoff radius.
  | Found hydrogenic basis function :  2 p   1.800
  | Found hydrogenic basis function :  4 f   7.000
  | Found ionic basis function :  3 s , default cutoff radius.
  | Found hydrogenic extended basis function :  5 g  10.800
  Species S                   : Missing cutoff potential type.
  Defaulting to exp(1/x)/(1-x)^2 type cutoff potential.
  Species S : No 'logarithmic' tag. Using default grid for free atom:
  | Default logarithmic grid data [bohr] : 0.1000E-03 0.1000E+03 0.1012E+01
  | Will include ionic basis functions of  2.0-fold positive S                    ion.
  Species S : On-site basis accuracy parameter (for Gram-Schmidt orthonormalisation) not specified.
  Using default value basis_acc =  0.1000000E-03.
  Species S                   : Using default innermost maximum threshold i_radial=  2 for radial functions.
  Species S                   : Default cutoff onset for free atom density etc. : 0.40000000E+01 AA.
  Species S                   : Basic radial grid will be enhanced according to radial_multiplier =   2, to contain    89 grid points.
 
  Reading configuration options for species Mo                  .
  | Found nuclear charge :  42.0000
  | Found atomic mass :    95.9400000000000      amu
  | Found l_max for Hartree potential  :   6
  | Found cutoff potl. onset [A], width [A], scale factor :    4.00000    2.00000    1.00000
  | Threshold for basis-dependent cutoff potential is   0.100000E-03
  | Found data for basic radial integration grid :    59 points, outermost radius =    7.000 A
  | Found multiplier for basic radial grid :   2
  | Found angular grid specification: user-specified.
  | Specified grid contains     6 separate shells.
  | Check grid settings after all constraints further below.
  | Found free-atom valence shell :  5 s   1.000
  | Found free-atom valence shell :  4 p   6.000
  | Found free-atom valence shell :  4 d   5.000
  | Found free-ion valence shell :  5 s   0.000
  | Found free-ion valence shell :  4 p   6.000
  | Found free-ion valence shell :  4 d   4.000
  | Found hydrogenic basis function :  4 f   8.400
  | Found hydrogenic basis function :  3 d   2.800
  | Found ionic basis function :  5 p , default cutoff radius.
  | Found hydrogenic extended basis function :  5 g  12.000
  | Found ionic basis function :  5 s , default cutoff radius.
  Species Mo                  : Missing cutoff potential type.
  Defaulting to exp(1/x)/(1-x)^2 type cutoff potential.
  Species Mo: No 'logarithmic' tag. Using default grid for free atom:
  | Default logarithmic grid data [bohr] : 0.1000E-03 0.1000E+03 0.1012E+01
  | Will include ionic basis functions of  2.0-fold positive Mo                   ion.
  Species Mo: On-site basis accuracy parameter (for Gram-Schmidt orthonormalisation) not specified.
  Using default value basis_acc =  0.1000000E-03.
  Species Mo                  : Using default innermost maximum threshold i_radial=  2 for radial functions.
  Species Mo                  : Default cutoff onset for free atom density etc. : 0.40000000E+01 AA.
  Species Mo                  : Basic radial grid will be enhanced according to radial_multiplier =   2, to contain   119 grid points.
 
  Reading configuration options for species W                   .
  | Found nuclear charge :  74.0000
  | Found atomic mass :    183.840000000000      amu
  | Found l_max for Hartree potential  :   6
  | Found cutoff potl. onset [A], width [A], scale factor :    4.00000    2.00000    1.00000
  | Threshold for basis-dependent cutoff potential is   0.100000E-03
  | Found data for basic radial integration grid :    71 points, outermost radius =    7.000 A
  | Found multiplier for basic radial grid :   2
  | Found angular grid specification: user-specified.
  | Specified grid contains     6 separate shells.
  | Check grid settings after all constraints further below.
  | Found free-atom valence shell :  6 s   2.000
  | Found free-atom valence shell :  5 p   6.000
  | Found free-atom valence shell :  5 d   4.000
  | Found free-atom valence shell :  4 f  14.000
  | Found free-ion valence shell :  6 s   1.000
  | Found free-ion valence shell :  5 p   6.000
  | Found free-ion valence shell :  5 d   3.000
  | Found free-ion valence shell :  4 f  14.000
  | Found hydrogenic basis function :  4 f   7.800
  | Found hydrogenic basis function :  4 d   5.800
  | Found ionic basis function :  6 p , default cutoff radius.
  | Found hydrogenic extended basis function :  5 g  12.400
  | Found ionic basis function :  6 s , default cutoff radius.
  Species W                   : Missing cutoff potential type.
  Defaulting to exp(1/x)/(1-x)^2 type cutoff potential.
  Species W : No 'logarithmic' tag. Using default grid for free atom:
  | Default logarithmic grid data [bohr] : 0.1000E-03 0.1000E+03 0.1012E+01
  | Will include ionic basis functions of  2.0-fold positive W                    ion.
  Species W : On-site basis accuracy parameter (for Gram-Schmidt orthonormalisation) not specified.
  Using default value basis_acc =  0.1000000E-03.
  Species W                   : Using default innermost maximum threshold i_radial=  2 for radial functions.
  Species W                   : Default cutoff onset for free atom density etc. : 0.40000000E+01 AA.
  Species W                   : Basic radial grid will be enhanced according to radial_multiplier =   2, to contain   143 grid points.
 
  Finished reading input file 'control.in'.
 
------------------------------------------------------------


------------------------------------------------------------
          Reading geometry description geometry.in.
------------------------------------------------------------
  Vacuum level in z-axis :   0.690485E+00
  | The smallest distance between any two atoms is         2.24505155 AA.
  | The first atom of this pair is atom number                     38 .
  | The second atom of this pair is atom number                    39 .
  | Wigner-Seitz cell of the first atom image           0     0     0 .
  | (The Wigner-Seitz cell of the second atom is 0 0 0  by definition.)

  Symmetry information by spglib:
  | Precision set to  0.1E-04
  | Number of Operations  : 1
  | Space group           : 1
  | International         : P1       ^
  | Schoenflies           : C1^1
  Input structure read successfully.
  The structure contains       76 atoms,  and a total of       3584.000 electrons.

  Input geometry:
  | Unit cell:
  |       16.35742505        0.00000000        0.00000000
  |       -8.17073830       14.17072870        0.00000000
  |        0.00000000        0.00000000      103.34910518
  | Atomic structure:
  |       Atom                x [A]            y [A]            z [A]
  |    1: Species W            -0.00150801        0.94100588       51.66279767
  |    2: Species Se            1.63413797        1.88482889       53.33816965
  |    3: Species Se            1.63512345        1.88129311       49.98771028
  |    4: Species W            -1.63563468        3.77399425       51.66123655
  |    5: Species Se            0.00258704        4.72004534       53.33226730
  |    6: Species Se            0.00199856        4.71973883       49.98958461
  |    7: Species W            -3.26877997        6.60752468       51.66279159
  |    8: Species Se           -1.63379558        7.55247517       53.33816718
  |    9: Species Se           -1.63635238        7.55513690       49.98772511
  |   10: Species W            -4.90055235        9.44160463       51.66464109
  |   11: Species Se           -3.26684130       10.38756821       53.34086003
  |   12: Species Se           -3.26686097       10.38906668       49.99028431
  |   13: Species W            -6.53698676       12.27967361       51.66460165
  |   14: Species Se           -4.90110799       13.22189965       53.34082570
  |   15: Species Se           -4.89980547       13.22112394       49.99027396
  |   16: Species W             3.26871301        0.93898191       51.66457233
  |   17: Species Se            4.90708999        1.89055970       53.33425320
  |   18: Species Se            4.90705666        1.88463345       49.99327960
  |   19: Species W             1.64227794        3.77053970       51.66016704
  |   20: Species Se            3.26919083        4.71809746       53.34157078
  |   21: Species Se            3.26957045        4.70495372       49.97179414
  |   22: Species W             0.00198127        6.61541822       51.66019117
  |   23: Species Se            1.63585543        7.55090199       53.34161175
  |   24: Species Se            1.62464625        7.55785719       49.97180804
  |   25: Species W            -1.63382223        9.44158942       51.66460668
  |   26: Species Se            0.00926236       10.38501814       53.33426508
  |   27: Species Se            0.00413375       10.38794423       49.99332499
  |   28: Species W            -3.26557735       12.27697483       51.66610491
  |   29: Species Se           -1.62938815       13.22191311       53.34080791
  |   30: Species Se           -1.63071577       13.22111719       49.99025094
  |   31: Species W             6.54476249        0.93899268       51.66454889
  |   32: Species Se            8.18000626        1.88485758       53.33812733
  |   33: Species Se            8.17899278        1.88128088       49.98766706
  |   34: Species W             4.90834294        3.78382906       51.66009661
  |   35: Species Se            6.54814788        4.71819894       53.34153720
  |   36: Species Se            6.54768256        4.70501211       49.97176304
  |   37: Species W             3.22940721        6.58281290       51.64845890
  |   38: Species Se            4.91024024        7.55351620       53.23374610
  |   39: Species Se            4.91050837        7.55349246       55.47879763
  |   40: Species Se            4.91020462        7.55352107       50.01845838
  |   41: Species W             1.64814853        9.43815842       51.66014330
  |   42: Species Se            3.27694736       10.39154357       53.34157419
  |   43: Species Se            3.26531739       10.39774136       49.97179957
  |   44: Species W             0.00580850       12.27966058       51.66456293
  |   45: Species Se            1.64234043       13.22332459       53.33814614
  |   46: Species Se            1.63874858       13.22420542       49.98768620
  |   47: Species W             9.81498488        0.94100825       51.66275908
  |   48: Species Se           11.45089162        1.88576492       53.33683313
  |   49: Species Se           11.44993886        1.88521358       49.98682078
  |   50: Species W             8.17432880        3.77055589       51.66011822
  |   51: Species Se            9.81470576        4.72006672       53.33222219
  |   52: Species Se            9.81529953        4.71974667       49.98956749
  |   53: Species W             6.59037091        6.58288896       51.64841325
  |   54: Species Se            8.18463204        7.55088805       53.34158701
  |   55: Species Se            8.19584629        7.55791657       49.97177747
  |   56: Species W             4.91158086        9.49450625       51.64846289
  |   57: Species Se            6.54679877       10.39155280       53.34159994
  |   58: Species Se            6.55842340       10.39779010       49.97181229
  |   59: Species W             3.27115695       12.27427149       51.66013669
  |   60: Species Se            4.91342500       13.22049755       53.33224437
  |   61: Species Se            4.91343554       13.22116159       49.98957104
  |   62: Species W            13.08543417        0.94155168       51.66122476
  |   63: Species Se           14.72062518        1.88575203       53.33684718
  |   64: Species Se           14.72162099        1.88520559       49.98684331
  |   65: Species W            11.45227869        3.77399648       51.66120792
  |   66: Species Se           13.08734479        4.71839038       53.33685375
  |   67: Species Se           13.08737151        4.71953353       49.98684212
  |   68: Species W             9.81784974        6.61544989       51.66012566
  |   69: Species Se           11.45426682        7.55246752       53.33816837
  |   70: Species Se           11.45688659        7.55517648       49.98772766
  |   71: Species W             8.17490863        9.43818976       51.66014154
  |   72: Species Se            9.81444448       10.38501918       53.33430835
  |   73: Species Se            9.81958655       10.38797435       49.99336605
  |   74: Species W             6.55504362       12.27428702       51.66018785
  |   75: Species Se            8.18454604       13.22329996       53.33817033
  |   76: Species Se            8.18813445       13.22420112       49.98771637

  Lattice parameters for 3D lattice (in Angstroms) :    16.357425   16.357583  103.349105
  Angle(s) between unit vectors (in degrees)       :    90.000000   90.000000  119.967434


  Quantities derived from the lattice vectors:
  | Reciprocal lattice vector 1:  0.384118  0.221480  0.000000
  | Reciprocal lattice vector 2: -0.000000  0.443392  0.000000
  | Reciprocal lattice vector 3:  0.000000  0.000000  0.060796
  | Unit cell volume                               :   0.239560E+05  A^3

  Fractional coordinates:
                         L1                L2                L3
       atom_frac         0.03307789        0.06640490        0.49988626  W
       atom_frac         0.16634137        0.13300861        0.51609706  Se
       atom_frac         0.16627698        0.13275909        0.48367821  Se
       atom_frac         0.03303837        0.26632323        0.49987115  W
       atom_frac         0.16653786        0.33308417        0.51603995  Se
       atom_frac         0.16649108        0.33306254        0.48369635  Se
       atom_frac         0.03307796        0.46627981        0.49988620  W
       atom_frac         0.16634074        0.53296308        0.51609704  Se
       atom_frac         0.16627826        0.53315091        0.48367835  Se
       atom_frac         0.03322086        0.66627517        0.49990410  W
       atom_frac         0.16644150        0.73302993        0.51612309  Se
       atom_frac         0.16649312        0.73313567        0.48370312  Se
       atom_frac         0.03321935        0.86655202        0.49990372  W
       atom_frac         0.16644077        0.93304303        0.51612276  Se
       atom_frac         0.16649306        0.93298829        0.48370302  Se
       atom_frac         0.23292927        0.06626208        0.49990343  W
       atom_frac         0.36663306        0.13341302        0.51605917  Se
       atom_frac         0.36642213        0.13299482        0.48373210  Se
       atom_frac         0.23330955        0.26607945        0.49986081  W
       atom_frac         0.36617079        0.33294671        0.51612997  Se
       atom_frac         0.36573069        0.33201918        0.48352421  Se
       atom_frac         0.23331196        0.46683684        0.49986104  W
       atom_frac         0.36617317        0.53285206        0.51613037  Se
       atom_frac         0.36573307        0.53334288        0.48352434  Se
       atom_frac         0.23292963        0.66627409        0.49990376  W
       atom_frac         0.36663397        0.73284997        0.51605928  Se
       atom_frac         0.36642358        0.73305646        0.48373254  Se
       atom_frac         0.23311960        0.86636157        0.49991826  W
       atom_frac         0.36645560        0.93304398        0.51612259  Se
       atom_frac         0.36634638        0.93298781        0.48370279  Se
       atom_frac         0.43320870        0.06626284        0.49990320  W
       atom_frac         0.56651957        0.13301063        0.51609665  Se
       atom_frac         0.56633153        0.13275823        0.48367779  Se
       atom_frac         0.43344665        0.26701725        0.49986012  W
       atom_frac         0.56663116        0.33295387        0.51612965  Se
       atom_frac         0.56613789        0.33202330        0.48352391  Se
       atom_frac         0.42946912        0.46453595        0.49974752  W
       atom_frac         0.56644260        0.53303654        0.51508667  Se
       atom_frac         0.56645815        0.53303487        0.53680966  Se
       atom_frac         0.56644059        0.53303688        0.48397573  Se
       atom_frac         0.43344973        0.66603197        0.49986058  W
       atom_frac         0.56663168        0.73331046        0.51613001  Se
       atom_frac         0.56613916        0.73374782        0.48352426  Se
       atom_frac         0.43320821        0.86655110        0.49990334  W
       atom_frac         0.56652025        0.93314359        0.51609684  Se
       atom_frac         0.56633171        0.93320574        0.48367798  Se
       atom_frac         0.63320256        0.06640507        0.49988589  W
       atom_frac         0.76651489        0.13307466        0.51608413  Se
       atom_frac         0.76643721        0.13303575        0.48366960  Se
       atom_frac         0.63264259        0.26608059        0.49986033  W
       atom_frac         0.76639579        0.33308567        0.51603952  Se
       atom_frac         0.76642080        0.33306309        0.48369618  Se
       atom_frac         0.63494202        0.46454132        0.49974708  W
       atom_frac         0.76652766        0.53285108        0.51613013  Se
       atom_frac         0.76746099        0.53334707        0.48352405  Se
       atom_frac         0.63494367        0.67000833        0.49974756  W
       atom_frac         0.76653213        0.73331111        0.51613025  Se
       atom_frac         0.76746266        0.73375126        0.48352438  Se
       atom_frac         0.63264309        0.86617081        0.49986051  W
       atom_frac         0.76639611        0.93294409        0.51603973  Se
       atom_frac         0.76642016        0.93299095        0.48369622  Se
       atom_frac         0.83315839        0.06644342        0.49987104  W
       atom_frac         0.96640736        0.13307375        0.51608427  Se
       atom_frac         0.96644898        0.13303519        0.48366982  Se
       atom_frac         0.83315909        0.26632339        0.49987088  W
       atom_frac         0.96640725        0.33296738        0.51608433  Se
       atom_frac         0.96644918        0.33304805        0.48366981  Se
       atom_frac         0.83339949        0.46683908        0.49986041  W
       atom_frac         0.96647022        0.53296254        0.51609705  Se
       atom_frac         0.96672587        0.53315370        0.48367838  Se
       atom_frac         0.83245985        0.66603419        0.49986056  W
       atom_frac         0.96606711        0.73285005        0.51605970  Se
       atom_frac         0.96648564        0.73305859        0.48373294  Se
       atom_frac         0.83340180        0.86617190        0.49986101  W
       atom_frac         0.96647265        0.93314185        0.51609707  Se
       atom_frac         0.96672379        0.93320544        0.48367827  Se

  Initial moments and charges:
  |  Atom   Moment         Charge        Species
  |     1   0.100000E+01   0.000000E+00   W
  |     2   0.100000E+01   0.000000E+00   Se
  |     3   0.100000E+01   0.000000E+00   Se
  |     4   0.100000E+01   0.000000E+00   W
  |     5   0.100000E+01   0.000000E+00   Se
  |     6   0.100000E+01   0.000000E+00   Se
  |     7   0.100000E+01   0.000000E+00   W
  |     8   0.100000E+01   0.000000E+00   Se
  |     9   0.100000E+01   0.000000E+00   Se
  |    10   0.100000E+01   0.000000E+00   W
  |    11   0.100000E+01   0.000000E+00   Se
  |    12   0.100000E+01   0.000000E+00   Se
  |    13   0.100000E+01   0.000000E+00   W
  |    14   0.100000E+01   0.000000E+00   Se
  |    15   0.100000E+01   0.000000E+00   Se
  |    16   0.100000E+01   0.000000E+00   W
  |    17   0.100000E+01   0.000000E+00   Se
  |    18   0.100000E+01   0.000000E+00   Se
  |    19   0.100000E+01   0.000000E+00   W
  |    20   0.100000E+01   0.000000E+00   Se
  |    21   0.100000E+01   0.000000E+00   Se
  |    22   0.100000E+01   0.000000E+00   W
  |    23   0.100000E+01   0.000000E+00   Se
  |    24   0.100000E+01   0.000000E+00   Se
  |    25   0.100000E+01   0.000000E+00   W
  |    26   0.100000E+01   0.000000E+00   Se
  |    27   0.100000E+01   0.000000E+00   Se
  |    28   0.100000E+01   0.000000E+00   W
  |    29   0.100000E+01   0.000000E+00   Se
  |    30   0.100000E+01   0.000000E+00   Se
  |    31   0.100000E+01   0.000000E+00   W
  |    32   0.100000E+01   0.000000E+00   Se
  |    33   0.100000E+01   0.000000E+00   Se
  |    34   0.100000E+01   0.000000E+00   W
  |    35   0.100000E+01   0.000000E+00   Se
  |    36   0.100000E+01   0.000000E+00   Se
  |    37   0.100000E+01   0.000000E+00   W
  |    38   0.100000E+01   0.000000E+00   Se
  |    39   0.100000E+01   0.000000E+00   Se
  |    40   0.100000E+01   0.000000E+00   Se
  |    41   0.100000E+01   0.000000E+00   W
  |    42   0.100000E+01   0.000000E+00   Se
  |    43   0.100000E+01   0.000000E+00   Se
  |    44   0.100000E+01   0.000000E+00   W
  |    45   0.100000E+01   0.000000E+00   Se
  |    46   0.100000E+01   0.000000E+00   Se
  |    47   0.100000E+01   0.000000E+00   W
  |    48   0.100000E+01   0.000000E+00   Se
  |    49   0.100000E+01   0.000000E+00   Se
  |    50   0.100000E+01   0.000000E+00   W
  |    51   0.100000E+01   0.000000E+00   Se
  |    52   0.100000E+01   0.000000E+00   Se
  |    53   0.100000E+01   0.000000E+00   W
  |    54   0.100000E+01   0.000000E+00   Se
  |    55   0.100000E+01   0.000000E+00   Se
  |    56   0.100000E+01   0.000000E+00   W
  |    57   0.100000E+01   0.000000E+00   Se
  |    58   0.100000E+01   0.000000E+00   Se
  |    59   0.100000E+01   0.000000E+00   W
  |    60   0.100000E+01   0.000000E+00   Se
  |    61   0.100000E+01   0.000000E+00   Se
  |    62   0.100000E+01   0.000000E+00   W
  |    63   0.100000E+01   0.000000E+00   Se
  |    64   0.100000E+01   0.000000E+00   Se
  |    65   0.100000E+01   0.000000E+00   W
  |    66   0.100000E+01   0.000000E+00   Se
  |    67   0.100000E+01   0.000000E+00   Se
  |    68   0.100000E+01   0.000000E+00   W
  |    69   0.100000E+01   0.000000E+00   Se
  |    70   0.100000E+01   0.000000E+00   Se
  |    71   0.100000E+01   0.000000E+00   W
  |    72   0.100000E+01   0.000000E+00   Se
  |    73   0.100000E+01   0.000000E+00   Se
  |    74   0.100000E+01   0.000000E+00   W
  |    75   0.100000E+01   0.000000E+00   Se
  |    76   0.100000E+01   0.000000E+00   Se

 
  Finished reading input file 'control.in'.
 

------------------------------------------------------------
          Reading geometry description geometry.in.
------------------------------------------------------------
 
  Consistency checks for stacksize environment parameter are next.
 
  | Maximum stacksize for task 0: unlimited
  | Maximum stacksize for task 1: unlimited
  | Maximum stacksize for task 2: unlimited
  | Maximum stacksize for task 3: unlimited
  | Maximum stacksize for task 4: unlimited
  | Maximum stacksize for task 5: unlimited
  | Maximum stacksize for task 6: unlimited
  | Maximum stacksize for task 7: unlimited
  | Maximum stacksize for task 8: unlimited
  | Maximum stacksize for task 9: unlimited
  | Maximum stacksize for task 10: unlimited
  | Maximum stacksize for task 11: unlimited
  | Maximum stacksize for task 12: unlimited
  | Maximum stacksize for task 13: unlimited
  | Maximum stacksize for task 14: unlimited
  | Maximum stacksize for task 15: unlimited
  | Maximum stacksize for task 16: unlimited
  | Maximum stacksize for task 17: unlimited
  | Maximum stacksize for task 18: unlimited
  | Maximum stacksize for task 19: unlimited
  | Maximum stacksize for task 20: unlimited
  | Maximum stacksize for task 21: unlimited
  | Maximum stacksize for task 22: unlimited
  | Maximum stacksize for task 23: unlimited
  | Maximum stacksize for task 24: unlimited
  | Maximum stacksize for task 25: unlimited
  | Maximum stacksize for task 26: unlimited
  | Maximum stacksize for task 27: unlimited
  | Maximum stacksize for task 28: unlimited
  | Maximum stacksize for task 29: unlimited
  | Maximum stacksize for task 30: unlimited
  | Maximum stacksize for task 31: unlimited
  | Maximum stacksize for task 32: unlimited
  | Maximum stacksize for task 33: unlimited
  | Maximum stacksize for task 34: unlimited
  | Maximum stacksize for task 35: unlimited
  | Maximum stacksize for task 36: unlimited
  | Maximum stacksize for task 37: unlimited
  | Maximum stacksize for task 38: unlimited
  | Maximum stacksize for task 39: unlimited
  | Maximum stacksize for task 40: unlimited
  | Maximum stacksize for task 41: unlimited
  | Maximum stacksize for task 42: unlimited
  | Maximum stacksize for task 43: unlimited
  | Maximum stacksize for task 44: unlimited
  | Maximum stacksize for task 45: unlimited
  | Maximum stacksize for task 46: unlimited
  | Maximum stacksize for task 47: unlimited
  | Maximum stacksize for task 48: unlimited
  | Maximum stacksize for task 49: unlimited
  | Maximum stacksize for task 50: unlimited
  | Maximum stacksize for task 51: unlimited
  | Maximum stacksize for task 52: unlimited
  | Maximum stacksize for task 53: unlimited
  | Maximum stacksize for task 54: unlimited
  | Maximum stacksize for task 55: unlimited
  | Maximum stacksize for task 56: unlimited
  | Maximum stacksize for task 57: unlimited
  | Maximum stacksize for task 58: unlimited
  | Maximum stacksize for task 59: unlimited
  | Maximum stacksize for task 60: unlimited
  | Maximum stacksize for task 61: unlimited
  | Maximum stacksize for task 62: unlimited
  | Maximum stacksize for task 63: unlimited
  | Maximum stacksize for task 64: unlimited
  | Maximum stacksize for task 65: unlimited
  | Maximum stacksize for task 66: unlimited
  | Maximum stacksize for task 67: unlimited
  | Maximum stacksize for task 68: unlimited
  | Maximum stacksize for task 69: unlimited
  | Maximum stacksize for task 70: unlimited
  | Maximum stacksize for task 71: unlimited
  | Maximum stacksize for task 72: unlimited
  | Maximum stacksize for task 73: unlimited
  | Maximum stacksize for task 74: unlimited
  | Maximum stacksize for task 75: unlimited
  | Maximum stacksize for task 76: unlimited
  | Maximum stacksize for task 77: unlimited
  | Maximum stacksize for task 78: unlimited
  | Maximum stacksize for task 79: unlimited
  | Maximum stacksize for task 80: unlimited
  | Maximum stacksize for task 81: unlimited
  | Maximum stacksize for task 82: unlimited
  | Maximum stacksize for task 83: unlimited
  | Maximum stacksize for task 84: unlimited
  | Maximum stacksize for task 85: unlimited
  | Maximum stacksize for task 86: unlimited
  | Maximum stacksize for task 87: unlimited
  | Maximum stacksize for task 88: unlimited
  | Maximum stacksize for task 89: unlimited
  | Maximum stacksize for task 90: unlimited
  | Maximum stacksize for task 91: unlimited
  | Maximum stacksize for task 92: unlimited
  | Maximum stacksize for task 93: unlimited
  | Maximum stacksize for task 94: unlimited
  | Maximum stacksize for task 95: unlimited
  | Maximum stacksize for task 96: unlimited
  | Maximum stacksize for task 97: unlimited
  | Maximum stacksize for task 98: unlimited
  | Maximum stacksize for task 99: unlimited
  | Maximum stacksize for task 100: unlimited
  | Maximum stacksize for task 101: unlimited
  | Maximum stacksize for task 102: unlimited
  | Maximum stacksize for task 103: unlimited
  | Maximum stacksize for task 104: unlimited
  | Maximum stacksize for task 105: unlimited
  | Maximum stacksize for task 106: unlimited
  | Maximum stacksize for task 107: unlimited
  | Maximum stacksize for task 108: unlimited
  | Maximum stacksize for task 109: unlimited
  | Maximum stacksize for task 110: unlimited
  | Maximum stacksize for task 111: unlimited
  | Maximum stacksize for task 112: unlimited
  | Maximum stacksize for task 113: unlimited
  | Maximum stacksize for task 114: unlimited
  | Maximum stacksize for task 115: unlimited
  | Maximum stacksize for task 116: unlimited
  | Maximum stacksize for task 117: unlimited
  | Maximum stacksize for task 118: unlimited
  | Maximum stacksize for task 119: unlimited
  | Maximum stacksize for task 120: unlimited
  | Maximum stacksize for task 121: unlimited
  | Maximum stacksize for task 122: unlimited
  | Maximum stacksize for task 123: unlimited
  | Maximum stacksize for task 124: unlimited
  | Maximum stacksize for task 125: unlimited
  | Maximum stacksize for task 126: unlimited
  | Maximum stacksize for task 127: unlimited
  | Maximum stacksize for task 128: unlimited
  | Maximum stacksize for task 129: unlimited
  | Maximum stacksize for task 130: unlimited
  | Maximum stacksize for task 131: unlimited
  | Maximum stacksize for task 132: unlimited
  | Maximum stacksize for task 133: unlimited
  | Maximum stacksize for task 134: unlimited
  | Maximum stacksize for task 135: unlimited
  | Maximum stacksize for task 136: unlimited
  | Maximum stacksize for task 137: unlimited
  | Maximum stacksize for task 138: unlimited
  | Maximum stacksize for task 139: unlimited
  | Maximum stacksize for task 140: unlimited
  | Maximum stacksize for task 141: unlimited
  | Maximum stacksize for task 142: unlimited
  | Maximum stacksize for task 143: unlimited
  | Maximum stacksize for task 144: unlimited
  | Maximum stacksize for task 145: unlimited
  | Maximum stacksize for task 146: unlimited
  | Maximum stacksize for task 147: unlimited
  | Maximum stacksize for task 148: unlimited
  | Maximum stacksize for task 149: unlimited
  | Maximum stacksize for task 150: unlimited
  | Maximum stacksize for task 151: unlimited
  | Maximum stacksize for task 152: unlimited
  | Maximum stacksize for task 153: unlimited
  | Maximum stacksize for task 154: unlimited
  | Maximum stacksize for task 155: unlimited
  | Maximum stacksize for task 156: unlimited
  | Maximum stacksize for task 157: unlimited
  | Maximum stacksize for task 158: unlimited
  | Maximum stacksize for task 159: unlimited
  | Maximum stacksize for task 160: unlimited
  | Maximum stacksize for task 161: unlimited
  | Maximum stacksize for task 162: unlimited
  | Maximum stacksize for task 163: unlimited
  | Maximum stacksize for task 164: unlimited
  | Maximum stacksize for task 165: unlimited
  | Maximum stacksize for task 166: unlimited
  | Maximum stacksize for task 167: unlimited
  | Maximum stacksize for task 168: unlimited
  | Maximum stacksize for task 169: unlimited
  | Maximum stacksize for task 170: unlimited
  | Maximum stacksize for task 171: unlimited
  | Maximum stacksize for task 172: unlimited
  | Maximum stacksize for task 173: unlimited
  | Maximum stacksize for task 174: unlimited
  | Maximum stacksize for task 175: unlimited
  | Maximum stacksize for task 176: unlimited
  | Maximum stacksize for task 177: unlimited
  | Maximum stacksize for task 178: unlimited
  | Maximum stacksize for task 179: unlimited
  | Maximum stacksize for task 180: unlimited
  | Maximum stacksize for task 181: unlimited
  | Maximum stacksize for task 182: unlimited
  | Maximum stacksize for task 183: unlimited
  | Maximum stacksize for task 184: unlimited
  | Maximum stacksize for task 185: unlimited
  | Maximum stacksize for task 186: unlimited
  | Maximum stacksize for task 187: unlimited
  | Maximum stacksize for task 188: unlimited
  | Maximum stacksize for task 189: unlimited
  | Maximum stacksize for task 190: unlimited
  | Maximum stacksize for task 191: unlimited
  | Maximum stacksize for task 192: unlimited
  | Maximum stacksize for task 193: unlimited
  | Maximum stacksize for task 194: unlimited
  | Maximum stacksize for task 195: unlimited
  | Maximum stacksize for task 196: unlimited
  | Maximum stacksize for task 197: unlimited
  | Maximum stacksize for task 198: unlimited
  | Maximum stacksize for task 199: unlimited
  | Maximum stacksize for task 200: unlimited
  | Maximum stacksize for task 201: unlimited
  | Maximum stacksize for task 202: unlimited
  | Maximum stacksize for task 203: unlimited
  | Maximum stacksize for task 204: unlimited
  | Maximum stacksize for task 205: unlimited
  | Maximum stacksize for task 206: unlimited
  | Maximum stacksize for task 207: unlimited
  | Maximum stacksize for task 208: unlimited
  | Maximum stacksize for task 209: unlimited
  | Maximum stacksize for task 210: unlimited
  | Maximum stacksize for task 211: unlimited
  | Maximum stacksize for task 212: unlimited
  | Maximum stacksize for task 213: unlimited
  | Maximum stacksize for task 214: unlimited
  | Maximum stacksize for task 215: unlimited
  | Current stacksize for task 0: unlimited
  | Current stacksize for task 1: unlimited
  | Current stacksize for task 2: unlimited
  | Current stacksize for task 3: unlimited
  | Current stacksize for task 4: unlimited
  | Current stacksize for task 5: unlimited
  | Current stacksize for task 6: unlimited
  | Current stacksize for task 7: unlimited
  | Current stacksize for task 8: unlimited
  | Current stacksize for task 9: unlimited
  | Current stacksize for task 10: unlimited
  | Current stacksize for task 11: unlimited
  | Current stacksize for task 12: unlimited
  | Current stacksize for task 13: unlimited
  | Current stacksize for task 14: unlimited
  | Current stacksize for task 15: unlimited
  | Current stacksize for task 16: unlimited
  | Current stacksize for task 17: unlimited
  | Current stacksize for task 18: unlimited
  | Current stacksize for task 19: unlimited
  | Current stacksize for task 20: unlimited
  | Current stacksize for task 21: unlimited
  | Current stacksize for task 22: unlimited
  | Current stacksize for task 23: unlimited
  | Current stacksize for task 24: unlimited
  | Current stacksize for task 25: unlimited
  | Current stacksize for task 26: unlimited
  | Current stacksize for task 27: unlimited
  | Current stacksize for task 28: unlimited
  | Current stacksize for task 29: unlimited
  | Current stacksize for task 30: unlimited
  | Current stacksize for task 31: unlimited
  | Current stacksize for task 32: unlimited
  | Current stacksize for task 33: unlimited
  | Current stacksize for task 34: unlimited
  | Current stacksize for task 35: unlimited
  | Current stacksize for task 36: unlimited
  | Current stacksize for task 37: unlimited
  | Current stacksize for task 38: unlimited
  | Current stacksize for task 39: unlimited
  | Current stacksize for task 40: unlimited
  | Current stacksize for task 41: unlimited
  | Current stacksize for task 42: unlimited
  | Current stacksize for task 43: unlimited
  | Current stacksize for task 44: unlimited
  | Current stacksize for task 45: unlimited
  | Current stacksize for task 46: unlimited
  | Current stacksize for task 47: unlimited
  | Current stacksize for task 48: unlimited
  | Current stacksize for task 49: unlimited
  | Current stacksize for task 50: unlimited
  | Current stacksize for task 51: unlimited
  | Current stacksize for task 52: unlimited
  | Current stacksize for task 53: unlimited
  | Current stacksize for task 54: unlimited
  | Current stacksize for task 55: unlimited
  | Current stacksize for task 56: unlimited
  | Current stacksize for task 57: unlimited
  | Current stacksize for task 58: unlimited
  | Current stacksize for task 59: unlimited
  | Current stacksize for task 60: unlimited
  | Current stacksize for task 61: unlimited
  | Current stacksize for task 62: unlimited
  | Current stacksize for task 63: unlimited
  | Current stacksize for task 64: unlimited
  | Current stacksize for task 65: unlimited
  | Current stacksize for task 66: unlimited
  | Current stacksize for task 67: unlimited
  | Current stacksize for task 68: unlimited
  | Current stacksize for task 69: unlimited
  | Current stacksize for task 70: unlimited
  | Current stacksize for task 71: unlimited
  | Current stacksize for task 72: unlimited
  | Current stacksize for task 73: unlimited
  | Current stacksize for task 74: unlimited
  | Current stacksize for task 75: unlimited
  | Current stacksize for task 76: unlimited
  | Current stacksize for task 77: unlimited
  | Current stacksize for task 78: unlimited
  | Current stacksize for task 79: unlimited
  | Current stacksize for task 80: unlimited
  | Current stacksize for task 81: unlimited
  | Current stacksize for task 82: unlimited
  | Current stacksize for task 83: unlimited
  | Current stacksize for task 84: unlimited
  | Current stacksize for task 85: unlimited
  | Current stacksize for task 86: unlimited
  | Current stacksize for task 87: unlimited
  | Current stacksize for task 88: unlimited
  | Current stacksize for task 89: unlimited
  | Current stacksize for task 90: unlimited
  | Current stacksize for task 91: unlimited
  | Current stacksize for task 92: unlimited
  | Current stacksize for task 93: unlimited
  | Current stacksize for task 94: unlimited
  | Current stacksize for task 95: unlimited
  | Current stacksize for task 96: unlimited
  | Current stacksize for task 97: unlimited
  | Current stacksize for task 98: unlimited
  | Current stacksize for task 99: unlimited
  | Current stacksize for task 100: unlimited
  | Current stacksize for task 101: unlimited
  | Current stacksize for task 102: unlimited
  | Current stacksize for task 103: unlimited
  | Current stacksize for task 104: unlimited
  | Current stacksize for task 105: unlimited
  | Current stacksize for task 106: unlimited
  | Current stacksize for task 107: unlimited
  | Current stacksize for task 108: unlimited
  | Current stacksize for task 109: unlimited
  | Current stacksize for task 110: unlimited
  | Current stacksize for task 111: unlimited
  | Current stacksize for task 112: unlimited
  | Current stacksize for task 113: unlimited
  | Current stacksize for task 114: unlimited
  | Current stacksize for task 115: unlimited
  | Current stacksize for task 116: unlimited
  | Current stacksize for task 117: unlimited
  | Current stacksize for task 118: unlimited
  | Current stacksize for task 119: unlimited
  | Current stacksize for task 120: unlimited
  | Current stacksize for task 121: unlimited
  | Current stacksize for task 122: unlimited
  | Current stacksize for task 123: unlimited
  | Current stacksize for task 124: unlimited
  | Current stacksize for task 125: unlimited
  | Current stacksize for task 126: unlimited
  | Current stacksize for task 127: unlimited
  | Current stacksize for task 128: unlimited
  | Current stacksize for task 129: unlimited
  | Current stacksize for task 130: unlimited
  | Current stacksize for task 131: unlimited
  | Current stacksize for task 132: unlimited
  | Current stacksize for task 133: unlimited
  | Current stacksize for task 134: unlimited
  | Current stacksize for task 135: unlimited
  | Current stacksize for task 136: unlimited
  | Current stacksize for task 137: unlimited
  | Current stacksize for task 138: unlimited
  | Current stacksize for task 139: unlimited
  | Current stacksize for task 140: unlimited
  | Current stacksize for task 141: unlimited
  | Current stacksize for task 142: unlimited
  | Current stacksize for task 143: unlimited
  | Current stacksize for task 144: unlimited
  | Current stacksize for task 145: unlimited
  | Current stacksize for task 146: unlimited
  | Current stacksize for task 147: unlimited
  | Current stacksize for task 148: unlimited
  | Current stacksize for task 149: unlimited
  | Current stacksize for task 150: unlimited
  | Current stacksize for task 151: unlimited
  | Current stacksize for task 152: unlimited
  | Current stacksize for task 153: unlimited
  | Current stacksize for task 154: unlimited
  | Current stacksize for task 155: unlimited
  | Current stacksize for task 156: unlimited
  | Current stacksize for task 157: unlimited
  | Current stacksize for task 158: unlimited
  | Current stacksize for task 159: unlimited
  | Current stacksize for task 160: unlimited
  | Current stacksize for task 161: unlimited
  | Current stacksize for task 162: unlimited
  | Current stacksize for task 163: unlimited
  | Current stacksize for task 164: unlimited
  | Current stacksize for task 165: unlimited
  | Current stacksize for task 166: unlimited
  | Current stacksize for task 167: unlimited
  | Current stacksize for task 168: unlimited
  | Current stacksize for task 169: unlimited
  | Current stacksize for task 170: unlimited
  | Current stacksize for task 171: unlimited
  | Current stacksize for task 172: unlimited
  | Current stacksize for task 173: unlimited
  | Current stacksize for task 174: unlimited
  | Current stacksize for task 175: unlimited
  | Current stacksize for task 176: unlimited
  | Current stacksize for task 177: unlimited
  | Current stacksize for task 178: unlimited
  | Current stacksize for task 179: unlimited
  | Current stacksize for task 180: unlimited
  | Current stacksize for task 181: unlimited
  | Current stacksize for task 182: unlimited
  | Current stacksize for task 183: unlimited
  | Current stacksize for task 184: unlimited
  | Current stacksize for task 185: unlimited
  | Current stacksize for task 186: unlimited
  | Current stacksize for task 187: unlimited
  | Current stacksize for task 188: unlimited
  | Current stacksize for task 189: unlimited
  | Current stacksize for task 190: unlimited
  | Current stacksize for task 191: unlimited
  | Current stacksize for task 192: unlimited
  | Current stacksize for task 193: unlimited
  | Current stacksize for task 194: unlimited
  | Current stacksize for task 195: unlimited
  | Current stacksize for task 196: unlimited
  | Current stacksize for task 197: unlimited
  | Current stacksize for task 198: unlimited
  | Current stacksize for task 199: unlimited
  | Current stacksize for task 200: unlimited
  | Current stacksize for task 201: unlimited
  | Current stacksize for task 202: unlimited
  | Current stacksize for task 203: unlimited
  | Current stacksize for task 204: unlimited
  | Current stacksize for task 205: unlimited
  | Current stacksize for task 206: unlimited
  | Current stacksize for task 207: unlimited
  | Current stacksize for task 208: unlimited
  | Current stacksize for task 209: unlimited
  | Current stacksize for task 210: unlimited
  | Current stacksize for task 211: unlimited
  | Current stacksize for task 212: unlimited
  | Current stacksize for task 213: unlimited
  | Current stacksize for task 214: unlimited
  | Current stacksize for task 215: unlimited
 
  Consistency checks for the contents of control.in are next.
 
  HSE06 screening parameters: omega_HF  =      0.11000000 bohr^-1, and
                              omega_PBE =      0.11000000 bohr^-1.
  MPI_IN_PLACE appears to work with this MPI implementation.
  | Keeping use_mpi_in_place .true. (see manual).
  Explicit treatment of the Coulomb operator is needed, but the RI method is not specified.
  Coulomb operator: Defaulting to 'LVL fast' resolution of identity - RI_type = LVL_fast
  Species Se: Using default value for prodbas_acc =   1.000000E-04.
  Species Se: Using default value max_l_prodbas =    20.
  Species S: Using default value for prodbas_acc =   1.000000E-04.
  Species S: Using default value max_l_prodbas =    20.
  Species Mo: Using default value for prodbas_acc =   1.000000E-04.
  Species Mo: Using default value max_l_prodbas =    20.
  Species W: Using default value for prodbas_acc =   1.000000E-04.
  Species W: Using default value max_l_prodbas =    20.
  Target number of points in a grid batch is not set. Defaulting to  100
  Method for grid partitioning is not set. Defaulting to parallel hash+maxmin partitioning.
  Batch size limit is not set. Defaulting to    200
  By default, will store active basis functions for each batch.
  If in need of memory, prune_basis_once .false. can be used to disable this option.
  communication_type for Hartree potential was not specified.
  Defaulting to calc_hartree .
  Defaulting to Pulay charge density mixer.
  Pulay mixer: Number of relevant iterations not set.
  Defaulting to    8 iterations.
  Pulay mixer: Number of initial linear mixing iterations not set.
  Defaulting to    0 iterations.
  Work space size for distributed Hartree potential not set.
  Defaulting to   0.200000E+03 MB.
  Mixing parameter for charge density mixing has not been set.
  Using default: charge_mix_param =     0.0500.
  The mixing parameter will be adjusted in iteration number     2 of the first full s.c.f. cycle only.
  Mixing parameter for spin density mixing has not been set.
[...]
   4530       0.00000                      16.498345          16.580345             0.000001
   4531       0.00000                      16.635267          16.658972             0.078627
   4532       0.00000                      16.635271          16.658975             0.000003
   4533       0.00000                      16.736069          16.775716             0.116741
   4534       0.00000                      16.736071          16.775717             0.000001
   4535       0.00000                      16.737913          16.800542             0.024825
   4536       0.00000                      16.737915          16.800544             0.000002
   4537       0.00000                      16.745668          16.805867             0.005323
   4538       0.00000                      16.745671          16.805867             0.000000
   4539       0.00000                      17.084071          17.114939             0.309072
   4540       0.00000                      17.084074          17.114942             0.000003
   4541       0.00000                      17.084447          17.136803             0.021861
   4542       0.00000                      17.084451          17.136806             0.000003
   4543       0.00000                      17.233826          17.236875             0.100069
   4544       0.00000                      17.233829          17.236877             0.000002
   4545       0.00000                      17.320375          17.308075             0.071198
   4546       0.00000                      17.320377          17.308076             0.000001
   4547       0.00000                      17.343759          17.371487             0.063411
   4548       0.00000                      17.343761          17.371489             0.000002
   4549       0.00000                      17.343842          17.429162             0.057673
   4550       0.00000                      17.343844          17.429164             0.000002
   4551       0.00000                      17.406820          17.572953             0.143790
   4552       0.00000                      17.406821          17.572955             0.000002
   4553       0.00000                      17.407775          17.613151             0.040197
   4554       0.00000                      17.407777          17.613152             0.000001
   4555       0.00000                      17.591175          17.628112             0.014959
   4556       0.00000                      17.591179          17.628117             0.000005
   4557       0.00000                      17.619653          17.668451             0.040334
   4558       0.00000                      17.619655          17.668453             0.000002
   4559       0.00000                      17.648216          17.686049             0.017596
   4560       0.00000                      17.648221          17.686053             0.000005
   4561       0.00000                      17.655518          17.692836             0.006783
   4562       0.00000                      17.655522          17.692840             0.000003
   4563       0.00000                      17.655629          17.715620             0.022780
   4564       0.00000                      17.655633          17.715621             0.000001
   4565       0.00000                      17.664620          17.731263             0.015641
   4566       0.00000                      17.664625          17.731265             0.000002
   4567       0.00000                      17.673814          17.735215             0.003950
   4568       0.00000                      17.673818          17.735216             0.000001
   4569       0.00000                      17.673935          17.743115             0.007899
   4570       0.00000                      17.673939          17.743117             0.000002
   4571       0.00000                      17.679751          17.749870             0.006753
   4572       0.00000                      17.679754          17.749872             0.000002
   4573       0.00000                      17.706095          17.752959             0.003087
   4574       0.00000                      17.706096          17.752961             0.000002
   4575       0.00000                      17.710786          17.763955             0.010994
   4576       0.00000                      17.710788          17.763956             0.000001
   4577       0.00000                      17.715758          17.770164             0.006208
   4578       0.00000                      17.715761          17.770166             0.000002
   4579       0.00000                      17.719445          17.782983             0.012817
   4580       0.00000                      17.719449          17.782985             0.000002
   4581       0.00000                      17.722913          17.791715             0.008730
   4582       0.00000                      17.722916          17.791718             0.000003
   4583       0.00000                      17.802506          17.846853             0.055135
   4584       0.00000                      17.802508          17.846856             0.000002
   4585       0.00000                      17.807347          17.857678             0.010822
   4586       0.00000                      17.807349          17.857680             0.000002
   4587       0.00000                      18.044492          18.092961             0.235281
   4588       0.00000                      18.044494          18.092964             0.000002
   4589       0.00000                      18.200133          18.236645             0.143681
   4590       0.00000                      18.200135          18.236647             0.000002
   4591       0.00000                      18.200628          18.247105             0.010457
   4592       0.00000                      18.200630          18.247106             0.000002
   4593       0.00000                      18.311052          18.338000             0.090894
   4594       0.00000                      18.311053          18.338001             0.000001
   4595       0.00000                      18.313403          18.343926             0.005925
   4596       0.00000                      18.313404          18.343929             0.000002

  What follows are estimated values for band gap, HOMO, LUMO, etc.
  | They are estimated on a discrete k-point grid and not necessarily exact.
  | For converged numbers, create a DOS and/or band structure plot on a denser k-grid.

  Highest occupied state (VBM) at     -5.43387248 eV (relative to internal zero)
  | Occupation number:      1.00000000
  | K-point:      12 at    0.500000    0.750000    0.000000 (in units of recip. lattice)

  Lowest unoccupied state (CBM) at    -3.62136612 eV (relative to internal zero)
  | Occupation number:      0.00000000
  | K-point:       1 at    0.000000    0.000000    0.000000 (in units of recip. lattice)

  ESTIMATED overall HOMO-LUMO gap:      1.81250636 eV between HOMO at k-point 12 and LUMO at k-point 1
  | This appears to be an indirect band gap.
  | Smallest direct gap :      1.89573620 eV for k_point 15 at    0.750000    0.500000    0.000000 (in units of recip. lattice)
  The gap value is above 0.2 eV. Unless you are using a very sparse k-point grid,
  this system is most likely an insulator or a semiconductor.
  | Potential vacuum level, "upper" slab surface:     0.05560561 eV
  | Potential vacuum level, "lower" slab surface:    -0.16421091 eV
  | Work function ("upper" slab surface)        :     4.34579587 eV
  | Work function ("lower" slab surface)        :     4.12597935 eV
  *** Warning: band gap may exist, check the suitability to define work function using chemical potential.
  | VBM (reference: upper vacuum level)         :     5.48947809 eV
  | CBM (reference: upper vacuum level)         :     3.67697173 eV

  Spin-orbit coupling                                     :  max(cpu_time)    wall_clock(cpu1)
  | Computing matrix elements for SOC operator            :         10.389              10.399
  | Constructing second-variational Hamiltonian           :          7.536               7.536
  | Diagonalizing second-variational Hamiltonian          :         10.694              10.696
  | Syncing data and calculating occupations              :         14.705              14.035
  | Writing out data, calculating band gaps, etc.         :          0.020               0.021
  | Total SOC time                                        :         42.689              42.690

  Partial memory accounting:
  | Current value for overall tracked memory usage:
  |   Minimum:      555.453 MB (on task 115)
  |   Maximum:     1947.592 MB (on task 203)
  |   Average:     1111.828 MB
  | Peak value for overall tracked memory usage:
  |   Minimum:      728.583 MB (on task 115 after allocating perturbation_matrix)
  |   Maximum:     2129.318 MB (on task 203 after allocating perturbation_matrix)
  |   Average:     1287.756 MB
  | Largest tracked array allocation so far:
  |   Minimum:      131.973 MB (d_aux_mat on task  51)
  |   Maximum:      449.551 MB (ovlp3fn for atom on task 199)
  |   Average:      210.260 MB
  Note:  These values currently only include a subset of arrays which are explicitly tracked.
  The "true" memory usage will be greater.
 ------------------------------------------------------------
 Work function related results without post-SCF corrections:
 ------------------------------------------------------------
  | Chemical Potential                          :    -4.70150474 eV
  Writing energy levels:
  | Potential vacuum level, "upper" slab surface:     0.05560561 eV
  | Potential vacuum level, "lower" slab surface:    -0.16421091 eV
  Spin-up energy levels:
  | Work function-spin ("upper" slab surface)   :     4.75711035 eV
  | Work function-spin ("lower" slab surface)   :     4.53729383 eV
  *** Warning: band gap may exist, check the suitability to define work function using chemical potential.
  | VBM-spin (reference: upper vacuum level)    :     5.71678198 eV
  | CBM-spin (reference: upper vacuum level)    :     3.62916212 eV
  Spin-down energy levels:
  | Work function-spin ("upper" slab surface)   :     4.75711035 eV
  | Work function-spin ("lower" slab surface)   :     4.53729383 eV
  *** Warning: band gap may exist, check the suitability to define work function using chemical potential.
  | VBM-spin (reference: upper vacuum level)    :     5.71676872 eV
  | CBM-spin (reference: upper vacuum level)    :     3.62915820 eV
 ------------------------------------------------------------
 Work function related results including post-SCF second variational SOC corrections:
 ------------------------------------------------------------
  | Chemical Potential                          :    -4.29019026 eV
  Writing energy levels:
  | Potential vacuum level, "upper" slab surface:     0.05560561 eV
  | Potential vacuum level, "lower" slab surface:    -0.16421091 eV
  | Work function ("upper" slab surface)        :     4.34579587 eV
  | Work function ("lower" slab surface)        :     4.12597935 eV
  *** Warning: band gap may exist, check the suitability to define work function using chemical potential.
  | VBM (reference: upper vacuum level)         :     5.48947809 eV
  | CBM (reference: upper vacuum level)         :     3.67697173 eV
 ------------------------------------------------------------

------------------------------------------------------------------------------
  Final output of selected total energy values:

  The following output summarizes some interesting total energy values
  at the end of a run (AFTER all relaxation, molecular dynamics, etc.).

  | Total energy of the DFT / Hartree-Fock s.c.f. calculation      :      -14711272.752531063 eV
  | Final zero-broadening corrected energy (caution - metals only) :      -14711272.752531063 eV
  | Total energy after non-SC SOC correction (DO NOT USE)          :      -14711316.184523869 eV
  | For reference only, the value of 1 Hartree used in FHI-aims is :             27.211384500 eV
  | For reference only, the overall average (free atom contribution
  | + realspace contribution) of the electrostatic potential after
  | s.c.f. convergence is                                          :             -1.339057448 eV

  Before relying on these values, please be sure to understand exactly which
  total energy value is referred to by a given number. Different objects may
  all carry the same name 'total energy'. Definitions:

  Total energy of the DFT / Hartree-Fock s.c.f. calculation:
  | Note that this energy does not include ANY quantities calculated after the
  | s.c.f. cycle, in particular not ANY RPA, MP2, etc. many-body perturbation terms.

  Final zero-broadening corrected energy:
  | For metallic systems only, a broadening of the occupation numbers at the Fermi
  | level can be extrapolated back to zero broadening by an electron-gas inspired
  | formula. For all systems that are not real metals, this value can be
  | meaningless and should be avoided.

------------------------------------------------------------------------------
  Methods described in the following list of references were used in this FHI-aims run.
  If you publish the results, please make sure to cite these reference if they apply.
  FHI-aims is an academic code, and for our developers (often, Ph.D. students
  and postdocs), scientific credit in the community is essential.
  Thank you for helping us!

  For any use of FHI-aims, please cite:

    Volker Blum, Ralf Gehrke, Felix Hanke, Paula Havu, Ville Havu,
    Xinguo Ren, Karsten Reuter, and Matthias Scheffler
    'Ab initio molecular simulations with numeric atom-centered orbitals'
    Computer Physics Communications 180, 2175-2196 (2009)
    http://doi.org/10.1016/j.cpc.2009.06.022


  For Hartree-Fock, hybrid functionals, or many-body perturbation theory used in your run, please cite:

    Xinguo Ren, Patrick Rinke, Volker Blum, Juergen Wieferink, Alex Tkatchenko,
    Andrea Sanfilippo, Karsten Reuter, and Matthias Scheffler,
    'Resolution-of-identity approach to Hartree-Fock, hybrid density functionals,
    RPA, MP2, and GW with numeric atom-centered orbital basis functions'
    New Journal of Physics 14, 053020 (2012).
    http://doi.org/10.1088/1367-2630/14/5/053020


  The provided symmetry information was generated with SPGlib:

    Atsushi Togo, Yusuke Seto, Dimitar Pashov
    SPGlib 1.7.3 obtained from http://spglib.sourceforge.net
    Copyright (C) 2008 Atsushi Togo


  For second-variational spin-orbit coupling used in your run, please cite:

    William P. Huhn and Volker Blum,
    'One-hundred-three compound band-structure benchmark of post-self-consistent'
    'spin-orbit coupling treatments in density functional theory'
    Phys. Rev. Materials 1, 033803 (2017).


  The ELSI infrastructure was used in your run to solve the Kohn-Sham electronic structure.
  Please check out http://elsi-interchange.org to learn more.
  If scalability is important for your project, please acknowledge ELSI by citing:

    V. W-z. Yu, F. Corsetti, A. Garcia, W. P. Huhn, M. Jacquelin, W. Jia,
    B. Lange, L. Lin, J. Lu, W. Mi, A. Seifitokaldani, A. Vazquez-Mayagoitia,
    C. Yang, H. Yang, and V. Blum
    'ELSI: A unified software interface for Kohn-Sham electronic structure solvers'
    Computer Physics Communications 222, 267-285 (2018).
    http://doi.org/10.1016/j.cpc.2017.09.007


  For the real-space grid partitioning and parallelization used in this calculation, please cite:

    Ville Havu, Volker Blum, Paula Havu, and Matthias Scheffler,
    'Efficient O(N) integration for all-electron electronic structure calculation'
    'using numerically tabulated basis functions'
    Journal of Computational Physics 228, 8367-8379 (2009).
    http://doi.org/10.1016/j.jcp.2009.08.008


  The high-level electronic structure method used in your calculation
  employed our efficient localized resolution of identity for the Coulomb operator.
  Some calculations, especially large-scale hybrid density functional theory,
  are only possible thanks to this development. For this feature, please cite:

    Arvid Ihrig, Juergen Wieferink, Igor Ying Zhang, Matti Ropo, Xinguo Ren,
    Patrick Rinke, Matthias Scheffler, and Volker Blum,
    'Accurate localized resolution of identity approach for linear-scaling
    hybrid density functionals and for many-body perturbation theory'
    New Journal of Physics 117, 093020 (2015).
    http://doi.org/10.1088/1367-2630/17/9/093020

  Of course, there are many other important community references, e.g., those cited in the
  above references. Our list is limited to references that describe implementations in the
  FHI-aims code. The reason is purely practical (length of this list) - please credit others as well.

------------------------------------------------------------
          Leaving FHI-aims.
          Date     :  20220913, Time     :  190135.703

          Computational steps:
          | Number of self-consistency cycles          :           22
          | Number of SCF (re)initializations          :            1
          | Number of relaxation steps                 :            0

          Detailed time accounting                     :  max(cpu_time)    wall_clock(cpu1)
          | Total time                                  :     6199.742 s        6199.849 s
          | Preparation time                            :        1.506 s           1.482 s
          | Boundary condition initalization            :        0.970 s           0.970 s
          | Grid partitioning                           :        5.281 s           5.278 s
          | Preloading free-atom quantities on grid     :        2.153 s           2.154 s
          | Free-atom superposition energy              :        0.079 s           0.078 s
          | Total time for integrations                 :       54.373 s          54.370 s
          | Product basis setup: Total time             :     1026.385 s        1026.396 s
          | Total time evaluating exchange matrix       :     4563.848 s        4562.407 s
          | Total time for solution of K.-S. equations  :      254.565 s         254.567 s
          | Total time for EV reorthonormalization      :        0.000 s           0.000 s
          | Total time for density & force components   :      189.130 s         189.130 s
          | Total time for mixing                       :        0.245 s           0.244 s
          | Total time for Hartree multipole update     :        0.299 s           0.299 s
          | Total time for Hartree multipole sum        :       45.207 s          45.210 s
          | Total time for total energy evaluation      :        0.084 s           0.110 s
          | Total time NSC force correction             :        2.869 s           2.869 s
          | Total time for scaled ZORA corrections      :        0.000 s           0.000 s
          | Total time for vdW correction               :       10.478 s          10.481 s
          | Total time for perturbative SOC             :       42.689 s          42.690 s

          Partial memory accounting:
          | Residual value for overall tracked memory usage across tasks:     0.000000 MB (should be 0.000000 MB)
          | Peak values for overall tracked memory usage:
          |   Minimum:      728.583 MB (on task 115 after allocating perturbation_matrix)
          |   Maximum:     2129.318 MB (on task 203 after allocating perturbation_matrix)
          |   Average:     1287.756 MB
          | Largest tracked array allocation:
          |   Minimum:      131.973 MB (d_aux_mat on task  51)
          |   Maximum:      449.551 MB (ovlp3fn for atom on task 199)
          |   Average:      210.260 MB
          Note:  These values currently only include a subset of arrays which are explicitly tracked.
          The "true" memory usage will be greater.

          Have a nice day.
------------------------------------------------------------
