------------------------------------------------------------
          Invoking FHI-aims ...

          When using FHI-aims, please cite the following reference:

            Volker Blum, Ralf Gehrke, Felix Hanke, Paula Havu,
            Ville Havu, Xinguo Ren, Karsten Reuter, and Matthias Scheffler,
            'Ab Initio Molecular Simulations with Numeric Atom-Centered Orbitals',
            Computer Physics Communications 180, 2175-2196 (2009)

          In addition, many other developments in FHI-aims are likely important for
          your particular application. A partial list of references is given at the end of
          this file. Thank you for giving credit to the authors of these developments.

          For any questions about FHI-aims, please visit our slack channel at

            https://fhi-aims.slack.com

          and our main development and support site at

            https://aims-git.rz-berlin.mpg.de .

          The latter site, in particular, has a wiki to collect information, as well
          as an issue tracker to log discussions, suggest improvements, and report issues
          or bugs. https://aims-git.rz-berlin.mpg.de is also the main development site
          of the project and all new and updated code versions can be obtained there.
          Please send an email to aims-coordinators@fhi-berlin.mpg.de and we will add
          you to these sites. They are for you and everyone is welcome there.

------------------------------------------------------------



  Date     :  20220929, Time     :  182016.649
  Time zero on CPU 1             :   0.324065300000000E+01  s.
  Internal wall clock time zero  :           433707616.649  s.

  FHI-aims created a unique identifier for this run for later identification
  aims_uuid : 57DE95F2-C8A0-4268-A024-490934DF1428

  Build configuration of the current instance of FHI-aims
  -------------------------------------------------------
  FHI-aims version      : 220117
  Commit number         : 0c0e6afe2
  CMake host system     : Linux-5.3.18-24.99-default
  CMake version         : 3.22.0
  Fortran compiler      : /mpcdf/soft/SLE_15/packages/x86_64/intel_oneapi/2021.4/mpi/2021.4.0/bin/mpiifort (Intel) version 2021.4.0.20210910
  Fortran compiler flags: -O3 -ip -fp-model precise
  C compiler            : /mpcdf/soft/SLE_15/packages/x86_64/intel/2021.4.0/bin/icc (Intel) version 2021.4.0.20210910
  C compiler flags      : -O3 -ip -fp-model precise
  C++ compiler          : /mpcdf/soft/SLE_15/packages/x86_64/intel/2021.4.0/bin/icpc (Intel) version 2021.4.0.20210910
  C++ compiler flags    : -O3 -ip -fp-model precise
  Using MPI
  Using ScaLAPACK
  Using LibXC
  Using i-PI
  Using RLSY
  Linking against: /mpcdf/soft/SLE_15/packages/x86_64/intel_oneapi/2021.4/mkl/latest/lib/intel64/libmkl_intel_lp64.so
                   /mpcdf/soft/SLE_15/packages/x86_64/intel_oneapi/2021.4/mkl/latest/lib/intel64/libmkl_sequential.so
                   /mpcdf/soft/SLE_15/packages/x86_64/intel_oneapi/2021.4/mkl/latest/lib/intel64/libmkl_core.so
                   /mpcdf/soft/SLE_15/packages/x86_64/intel_oneapi/2021.4/mkl/latest/lib/intel64/libmkl_blacs_intelmpi_lp64.so
                   /mpcdf/soft/SLE_15/packages/x86_64/intel_oneapi/2021.4/mkl/latest/lib/intel64/libmkl_scalapack_lp64.so

  Using      216 parallel tasks.
  Task        0 on host ravg1147 reporting.
  Task        1 on host ravg1147 reporting.
  Task        2 on host ravg1147 reporting.
  Task        3 on host ravg1147 reporting.
  Task        4 on host ravg1147 reporting.
  Task        5 on host ravg1147 reporting.
  Task        6 on host ravg1147 reporting.
  Task        7 on host ravg1147 reporting.
  Task        8 on host ravg1147 reporting.
  Task        9 on host ravg1147 reporting.
  Task       10 on host ravg1147 reporting.
  Task       11 on host ravg1147 reporting.
  Task       12 on host ravg1147 reporting.
  Task       13 on host ravg1147 reporting.
  Task       14 on host ravg1147 reporting.
  Task       15 on host ravg1147 reporting.
  Task       16 on host ravg1147 reporting.
  Task       17 on host ravg1147 reporting.
  Task       18 on host ravg1147 reporting.
  Task       19 on host ravg1147 reporting.
  Task       20 on host ravg1147 reporting.
  Task       21 on host ravg1147 reporting.
  Task       22 on host ravg1147 reporting.
  Task       23 on host ravg1147 reporting.
  Task       24 on host ravg1147 reporting.
  Task       25 on host ravg1147 reporting.
  Task       26 on host ravg1147 reporting.
  Task       27 on host ravg1147 reporting.
  Task       28 on host ravg1147 reporting.
  Task       29 on host ravg1147 reporting.
  Task       30 on host ravg1147 reporting.
  Task       31 on host ravg1147 reporting.
  Task       32 on host ravg1147 reporting.
  Task       33 on host ravg1147 reporting.
  Task       34 on host ravg1147 reporting.
  Task       35 on host ravg1147 reporting.
  Task       36 on host ravg1147 reporting.
  Task       37 on host ravg1147 reporting.
  Task       38 on host ravg1147 reporting.
  Task       39 on host ravg1147 reporting.
  Task       40 on host ravg1147 reporting.
  Task       41 on host ravg1147 reporting.
  Task       42 on host ravg1147 reporting.
  Task       43 on host ravg1147 reporting.
  Task       44 on host ravg1147 reporting.
  Task       45 on host ravg1147 reporting.
  Task       46 on host ravg1147 reporting.
  Task       47 on host ravg1147 reporting.
  Task       48 on host ravg1147 reporting.
  Task       49 on host ravg1147 reporting.
  Task       50 on host ravg1147 reporting.
  Task       51 on host ravg1147 reporting.
  Task       52 on host ravg1147 reporting.
  Task       53 on host ravg1147 reporting.
  Task       54 on host ravg1147 reporting.
  Task       55 on host ravg1147 reporting.
  Task       56 on host ravg1147 reporting.
  Task       57 on host ravg1147 reporting.
  Task       58 on host ravg1147 reporting.
  Task       59 on host ravg1147 reporting.
  Task       60 on host ravg1147 reporting.
  Task       61 on host ravg1147 reporting.
  Task       62 on host ravg1147 reporting.
  Task       63 on host ravg1147 reporting.
  Task       64 on host ravg1147 reporting.
  Task       65 on host ravg1147 reporting.
  Task       66 on host ravg1147 reporting.
  Task       67 on host ravg1147 reporting.
  Task       68 on host ravg1147 reporting.
  Task       69 on host ravg1147 reporting.
  Task       70 on host ravg1147 reporting.
  Task       71 on host ravg1147 reporting.
  Task       72 on host ravg1148 reporting.
  Task       73 on host ravg1148 reporting.
  Task       74 on host ravg1148 reporting.
  Task       75 on host ravg1148 reporting.
  Task       76 on host ravg1148 reporting.
  Task       77 on host ravg1148 reporting.
  Task       78 on host ravg1148 reporting.
  Task       79 on host ravg1148 reporting.
  Task       80 on host ravg1148 reporting.
  Task       81 on host ravg1148 reporting.
  Task       82 on host ravg1148 reporting.
  Task       83 on host ravg1148 reporting.
  Task       84 on host ravg1148 reporting.
  Task       85 on host ravg1148 reporting.
  Task       86 on host ravg1148 reporting.
  Task       87 on host ravg1148 reporting.
  Task       88 on host ravg1148 reporting.
  Task       89 on host ravg1148 reporting.
  Task       90 on host ravg1148 reporting.
  Task       91 on host ravg1148 reporting.
  Task       92 on host ravg1148 reporting.
  Task       93 on host ravg1148 reporting.
  Task       94 on host ravg1148 reporting.
  Task       95 on host ravg1148 reporting.
  Task       96 on host ravg1148 reporting.
  Task       97 on host ravg1148 reporting.
  Task       98 on host ravg1148 reporting.
  Task       99 on host ravg1148 reporting.
  Task      100 on host ravg1148 reporting.
  Task      101 on host ravg1148 reporting.
  Task      102 on host ravg1148 reporting.
  Task      103 on host ravg1148 reporting.
  Task      104 on host ravg1148 reporting.
  Task      105 on host ravg1148 reporting.
  Task      106 on host ravg1148 reporting.
  Task      107 on host ravg1148 reporting.
  Task      108 on host ravg1148 reporting.
  Task      109 on host ravg1148 reporting.
  Task      110 on host ravg1148 reporting.
  Task      111 on host ravg1148 reporting.
  Task      112 on host ravg1148 reporting.
  Task      113 on host ravg1148 reporting.
  Task      114 on host ravg1148 reporting.
  Task      115 on host ravg1148 reporting.
  Task      116 on host ravg1148 reporting.
  Task      117 on host ravg1148 reporting.
  Task      118 on host ravg1148 reporting.
  Task      119 on host ravg1148 reporting.
  Task      120 on host ravg1148 reporting.
  Task      121 on host ravg1148 reporting.
  Task      122 on host ravg1148 reporting.
  Task      123 on host ravg1148 reporting.
  Task      124 on host ravg1148 reporting.
  Task      125 on host ravg1148 reporting.
  Task      126 on host ravg1148 reporting.
  Task      127 on host ravg1148 reporting.
  Task      128 on host ravg1148 reporting.
  Task      129 on host ravg1148 reporting.
  Task      130 on host ravg1148 reporting.
  Task      131 on host ravg1148 reporting.
  Task      132 on host ravg1148 reporting.
  Task      133 on host ravg1148 reporting.
  Task      134 on host ravg1148 reporting.
  Task      135 on host ravg1148 reporting.
  Task      136 on host ravg1148 reporting.
  Task      137 on host ravg1148 reporting.
  Task      138 on host ravg1148 reporting.
  Task      139 on host ravg1148 reporting.
  Task      140 on host ravg1148 reporting.
  Task      141 on host ravg1148 reporting.
  Task      142 on host ravg1148 reporting.
  Task      143 on host ravg1148 reporting.
  Task      144 on host ravg1149 reporting.
  Task      145 on host ravg1149 reporting.
  Task      146 on host ravg1149 reporting.
  Task      147 on host ravg1149 reporting.
  Task      148 on host ravg1149 reporting.
  Task      149 on host ravg1149 reporting.
  Task      150 on host ravg1149 reporting.
  Task      151 on host ravg1149 reporting.
  Task      152 on host ravg1149 reporting.
  Task      153 on host ravg1149 reporting.
  Task      154 on host ravg1149 reporting.
  Task      155 on host ravg1149 reporting.
  Task      156 on host ravg1149 reporting.
  Task      157 on host ravg1149 reporting.
  Task      158 on host ravg1149 reporting.
  Task      159 on host ravg1149 reporting.
  Task      160 on host ravg1149 reporting.
  Task      161 on host ravg1149 reporting.
  Task      162 on host ravg1149 reporting.
  Task      163 on host ravg1149 reporting.
  Task      164 on host ravg1149 reporting.
  Task      165 on host ravg1149 reporting.
  Task      166 on host ravg1149 reporting.
  Task      167 on host ravg1149 reporting.
  Task      168 on host ravg1149 reporting.
  Task      169 on host ravg1149 reporting.
  Task      170 on host ravg1149 reporting.
  Task      171 on host ravg1149 reporting.
  Task      172 on host ravg1149 reporting.
  Task      173 on host ravg1149 reporting.
  Task      174 on host ravg1149 reporting.
  Task      175 on host ravg1149 reporting.
  Task      176 on host ravg1149 reporting.
  Task      177 on host ravg1149 reporting.
  Task      178 on host ravg1149 reporting.
  Task      179 on host ravg1149 reporting.
  Task      180 on host ravg1149 reporting.
  Task      181 on host ravg1149 reporting.
  Task      182 on host ravg1149 reporting.
  Task      183 on host ravg1149 reporting.
  Task      184 on host ravg1149 reporting.
  Task      185 on host ravg1149 reporting.
  Task      186 on host ravg1149 reporting.
  Task      187 on host ravg1149 reporting.
  Task      188 on host ravg1149 reporting.
  Task      189 on host ravg1149 reporting.
  Task      190 on host ravg1149 reporting.
  Task      191 on host ravg1149 reporting.
  Task      192 on host ravg1149 reporting.
  Task      193 on host ravg1149 reporting.
  Task      194 on host ravg1149 reporting.
  Task      195 on host ravg1149 reporting.
  Task      196 on host ravg1149 reporting.
  Task      197 on host ravg1149 reporting.
  Task      198 on host ravg1149 reporting.
  Task      199 on host ravg1149 reporting.
  Task      200 on host ravg1149 reporting.
  Task      201 on host ravg1149 reporting.
  Task      202 on host ravg1149 reporting.
  Task      203 on host ravg1149 reporting.
  Task      204 on host ravg1149 reporting.
  Task      205 on host ravg1149 reporting.
  Task      206 on host ravg1149 reporting.
  Task      207 on host ravg1149 reporting.
  Task      208 on host ravg1149 reporting.
  Task      209 on host ravg1149 reporting.
  Task      210 on host ravg1149 reporting.
  Task      211 on host ravg1149 reporting.
  Task      212 on host ravg1149 reporting.
  Task      213 on host ravg1149 reporting.
  Task      214 on host ravg1149 reporting.
  Task      215 on host ravg1149 reporting.

  Performing system and environment tests:
  | Environment variable OMP_NUM_THREADS correctly set to 1.
  | Checking for ScaLAPACK...
  | Testing pdtran()...
  | All pdtran() tests passed.

  Obtaining array dimensions for all initial allocations:
  
  -----------------------------------------------------------------------
  Parsing control.in (first pass over file, find array dimensions only).
  The contents of control.in will be repeated verbatim below
  unless switched off by setting 'verbatim_writeout .false.' .
  in the first line of control.in .
  -----------------------------------------------------------------------
  
  xc                 hse06  0.11
  hse_unit b
  spin               collinear
  default_initial_moment 1
  charge      0.0
  relativistic       atomic_zora scalar
  #elsi_restart read
  # SCF settings
  #relax_geometry bfgs 1E-3
  #relax_unit_cell fixed_angles
  use_symmetric_forces .true.
  occupation_type gaussian       0.1
  # k-grid settings  (to be adjusted)
  k_grid  4 4 1
  #empty_states 8
  use_dipole_correction
  include_spin_orbit non_self_consistent
  # sc_accuracy_rho    1E-4
  #    sc_accuracy_eev    1E-3
  #    sc_accuracy_etot   1E-4
  #    sc_accuracy_forces 1E-2
  output dos_tetrahedron -10 0 2001 0.1
  output species_proj_dos_tetrahedron -10 0 2001 0.1
  
  many_body_dispersion_nl    beta=0.83
  ################################################################################
  #
  #  FHI-aims code project
  #  Volker Blum, 2018
  #
  #  Suggested "intermediate" defaults for Se atom (to be pasted into control.in file)
  #
  #  2020/09/15 These "intermediate" settings are identical to past "tight" defaults
  #             and differ only in the "g" function that is now included in "tight".
  #
  ################################################################################
    species        Se
  #     global species definitions
      nucleus             34
      mass                78.96
  #
      l_hartree           6
  #
      cut_pot             4.0          2.0  1.0
      basis_dep_cutoff    1e-4
  #
      radial_base         55 7.0
      radial_multiplier   2
      angular_grids       specified
        division   0.0830  110
        division   0.1357  194
        division   0.7377  302
        division   0.8610  434
  #      division   0.9640  590
  #      division   1.0773  770
  #      division   2.5539  974
  #      outer_grid  974
        outer_grid  434
  ################################################################################
  #
  #  Definition of "minimal" basis
  #
  ################################################################################
  #     valence basis states
      valence      4  s   2.
      valence      4  p   4.
      valence      3  d  10.
  #     ion occupancy
      ion_occ      4  s   1.
      ion_occ      4  p   3.
      ion_occ      3  d  10.
  ################################################################################
  #
  #  Suggested additional basis functions. For production calculations,
  #  uncomment them one after another (the most important basis functions are
  #  listed first).
  #
  #  Constructed for dimers: 1.85 A, 2.15 A, 2.50 A, 3.00 A, 4.00 A
  #
  ################################################################################
  #  "First tier" - improvements: -336.21 meV to -36.85 meV
       hydro 3 d 4.3
       hydro 2 p 1.6
       hydro 4 f 7.2
       ionic 4 s auto
  #  "Second tier" - improvements: -14.39 meV to -1.49 meV
  #     hydro 5 g 10.4
  #     hydro 4 p 4.5
  #     hydro 4 d 6.2
  #     hydro 4 f 11.2
  #     hydro 1 s 0.65
  #     hydro 6 h 15.2
  #  "Third tier" - improvements: -0.46 meV and below
  #     hydro 5 g 14.4
  #     ionic 4 d auto
  #     hydro 4 f 22.4
  #     hydro 5 f 7.4
  #     hydro 5 p 8
  #     hydro 5 s 9.4
  #  "Fourth tier" - improvements: -0.12 meV and below
  #     hydro 5 d 11.6
  #     hydro 6 h 18
  #     hydro 4 p 4
  #     hydro 5 f 16
  #     hydro 4 s 3.9
  
  
  ################################################################################
  #
  #  FHI-aims code project
  #  Volker Blum, 2018
  #
  #  Suggested "intermediate" defaults for S atom (to be pasted into control.in file)
  #
  ################################################################################
    species        S
  #     global species definitions
      nucleus             16
      mass                32.065
  #
      l_hartree           6
  #
      cut_pot             4.0          2.0  1.0
      basis_dep_cutoff    1e-4
  #
      radial_base         44 7.0
      radial_multiplier   2
      angular_grids       specified
        division   0.4665  110
        division   0.5810  194
        division   0.7139  302
        division   0.8274  434
  #      division   0.9105  590
  #      division   1.0975  770
  #      division   1.2028  974
  #      outer_grid  974
        outer_grid  434
  ################################################################################
  #
  #  Definition of "minimal" basis
  #
  ################################################################################
  #     valence basis states
      valence      3  s   2.
      valence      3  p   4.
  #     ion occupancy
      ion_occ      3  s   1.
      ion_occ      3  p   3.
  ################################################################################
  #
  #  Suggested additional basis functions. For production calculations,
  #  uncomment them one after another (the most important basis functions are
  #  listed first).
  #
  #  Constructed for dimers: 1.6 A, 1.9 A, 2.5 A, 3.25 A, 4.0 A
  #
  ################################################################################
  #  "First tier" - improvements: -652.81 meV to -45.53 meV
       ionic 3 d auto
       hydro 2 p 1.8
       hydro 4 f 7
       ionic 3 s auto
  #  "Second tier" - improvements: -30.20 meV to -1.74 meV
  #     hydro 4 d 6.2
  for_aux     hydro 5 g 10.8
  #     hydro 4 p 4.9
  #     hydro 5 f 10
  #     hydro 1 s 0.8
  #  "Third tier" - improvements: -1.04 meV to -0.20 meV
  #     hydro 3 d 3.9
  #     hydro 3 d 2.7
  #     hydro 5 g 12
  #     hydro 4 p 10.4
  #     hydro 5 f 12.4
  #     hydro 2 s 1.9
  #  "Fourth tier" - improvements: -0.35 meV to -0.06 meV
  #     hydro 4 d 10.4
  #     hydro 4 p 7.2
  #     hydro 4 d 10
  #     hydro 5 g 19.2
  #     hydro 4 s 12
  
  ################################################################################
  #
  #  FHI-aims code project
  # Volker Blum, Fritz Haber Institute Berlin, 2009
  #
  #  Suggested "intermediate" defaults for Mo atom (to be pasted into control.in file)
  #
  #  See https://aaltodoc.aalto.fi/handle/123456789/33620 for the report these
  #  setting are based on
  ################################################################################
    species        Mo
  #     global species definitions
      nucleus             42
      mass                95.94
  #
      l_hartree           6
  #
      cut_pot             4.0  2.0  1.0
      basis_dep_cutoff    1e-4
  #
      radial_base         59 7.0
      radial_multiplier   2
      angular_grids specified
        division   0.3117   50
        division   0.6750  110
        division   1.0351  194
        division   1.2073  302
        division   1.6402  434
  #      division   1.9185  590
  #      division   2.0237  770
  #      division   2.0980  974
  #      division   2.7972 1202
  #      outer_grid  974
        outer_grid  434
  ################################################################################
  #
  #  Definition of "minimal" basis
  #
  ################################################################################
  #     valence basis states
      valence      5  s   1.
      valence      4  p   6.
      valence      4  d   5.
  #     ion occupancy
      ion_occ     5  s   0.
      ion_occ     4  p   6.
      ion_occ     4  d   4.
  ################################################################################
  #
  #  Suggested additional basis functions. For production calculations,
  #  uncomment them one after another (the most important basis functions are
  #  listed first).
  #
  #  Constructed for dimers: 1.675 A, 1.9 A, 2.375 A, 3.00 A, 4.00 A
  #
  ################################################################################
  #  "First tier"  - max. impr. -711.23  meV, min. impr. -21.07 meV
       hydro 4 f 8.4
       hydro 3 d 2.8
       ionic 5 p auto
       for_aux hydro 5 g 12
       ionic 5 s auto
  #  "Second tier" - max. impr. -39.38  meV, min. impr. -2.68 meV
  #     hydro 4 f 12.4
  #     hydro 3 d 3.3
  #     hydro 6 h 17.2
  #     hydro 4 f 7.6
  #     hydro 3 p 3.0
  #     hydro 1 s 0.65
  #  "Third tier"  - max. impr. -5.50 meV, min. impr. -0.47 meV
  #     hydro 4 f 29.2
  #     hydro 5 g 11.2
  #     hydro 3 d 6.8
  #     hydro 6 h 14.8
  #     hydro 2 p 2.3
  #     hydro 4 s 3.8
  #  "Fourth tier"  - max. impr. -0.58 meV, min. impr. -0.19 meV
  #     hydro 5 f 6.8
  #     hydro 5 d 14.8
  #     hydro 6 s 7.8
  #     hydro 5 g 20.8
  #     hydro 5 d 10.4
  #     hydro 5 p 9.8
  #  Further functions - -0.17 meV and below
  #     hydro 5 d 3.2
  ################################################################################
  #
  #  FHI-aims code project
  #  Volker Blum, Maria Dragoumi, Sebastian Kokott 2020
  #
  #  Suggested "intermediate" defaults for W atom (to be pasted into control.in file)
  #
  ################################################################################
    species          W
  #     global species definitions
      nucleus        74
      mass           183.84
  #
      l_hartree      6
  #
      cut_pot        4.0  2.0  1.0
      basis_dep_cutoff    1e-4
  #
      radial_base    71  7.0
      radial_multiplier  2
      angular_grids specified
        division   0.2901   50
        division   0.6986  110
        division   1.0528  194
        division   1.2659  302
        division   1.5223  434
  #      division   1.8111  590
  #      division   2.0105  770
  #      division   2.0413  974
  #      division   2.8804 1202
  #      outer_grid  974
        outer_grid  434
  ################################################################################
  #
  #  Definition of "minimal" basis
  #
  ################################################################################
  #     valence basis states
      valence      6  s   2.
      valence      5  p   6.
      valence      5  d   4.
      valence      4  f  14.
  #     ion occupancy
      ion_occ      6  s   1.
      ion_occ      5  p   6.
      ion_occ      5  d   3.
      ion_occ      4  f  14.
  ################################################################################
  #
  #  Suggested additional basis functions. For production calculations,
  #  uncomment them one after another (the most important basis functions are
  #  listed first).
  #
  #  Constructed for dimers: 1.775, 1.99, 2.50, 3.25, 4.50 AA
  #
  ################################################################################
  #
  #  "First tier" - improvements: -603.77 meV to -28.99 meV
       hydro 4 f 7.8
       hydro 4 d 5.8
       ionic 6 p auto
    for_aux   hydro 5 g 12.4
       ionic 6 s auto
  #  "Second tier" - improvements: -28.30 meV to -1.31 meV
  #     hydro 6 h 16.8
  #     ionic 5 d auto
  #     hydro 4 f 8.6
  #     hydro 5 g 16.8
  #     hydro 5 d 8.4
  #     hydro 3 p 3.3
  #     hydro 1 s 0.55
  #  "Third tier" - max. impr. -1.79 meV, min. impr. -0.26 meV
  #     hydro 5 f 10.8
  #     hydro 5 g 34.4
  #     hydro 6 h 20.8
  #     hydro 5 g 12.8
  #     hydro 2 p 1.6
  #     hydro 4 s 4.7
  #     hydro 6 d 18.4
  #  "Fourth tier" -0.46 max. impr. - meV, min. impr. -0.09 meV
  #     hydro 6 h 21.6
  #     hydro 5 f 22.4
  #     hydro 4 f 4
  #     hydro 5 p 9.6
  #     hydro 6 d 17.2
  #     hydro 3 p 5.2
  #     hydro 5 g 4.7
  #     hydro 6 s 7.6
  
  -----------------------------------------------------------------------
  Completed first pass over input file control.in .
  -----------------------------------------------------------------------
  
  
  -----------------------------------------------------------------------
  Parsing geometry.in (first pass over file, find array dimensions only).
  The contents of geometry.in will be repeated verbatim below
  unless switched off by setting 'verbatim_writeout .false.' .
  in the first line of geometry.in .
  -----------------------------------------------------------------------
  
  #
  # This is the geometry file that corresponds to the current relaxation step.
  # If you do not want this file to be written, set the "write_restart_geometry" flag to .false.
  #  aims_uuid : 1992E51F-4E22-4EE2-A53E-9B7CFD6F8CF7
  #
    set_vacuum_level       103.343980
  lattice_vector     16.35742505      0.00000000      0.00000000
  lattice_vector     -8.17073830     14.17072870      0.00000000
  lattice_vector      0.00000000      0.00000000    103.34910518
  atom      -0.00051695      0.94042201     51.66995447 W
  atom       1.63555806      1.88524259     53.34426532 Se
  atom       1.63556379      1.88524627     49.99565215 Se
  atom      -1.63466080      3.77455956     51.66998216 W
  atom       0.00141204      4.71939765     53.34428934 Se
  atom       0.00140890      4.71939273     49.99565563 Se
  atom      -3.26881657      6.60870693     51.66996468 W
  atom      -1.63273938      7.55353384     53.34426212 Se
  atom      -1.63273640      7.55353522     49.99565385 Se
  atom      -4.90295750      9.44285556     51.66995536 W
  atom      -3.26688055     10.38766857     53.34429800 Se
  atom      -3.26687601     10.38770025     49.99566871 Se
  atom      -6.53710284     12.27698879     51.66993935 W
  atom      -4.90104792     13.22183689     53.34429228 Se
  atom      -4.90101299     13.22182119     49.99567495 Se
  atom       3.27098133      0.94042233     51.66996015 W
  atom       4.90703604      1.88526113     53.34426843 Se
  atom       4.90706698      1.88523163     49.99565698 Se
  atom       1.63683040      3.77455828     51.66996806 W
  atom       3.27290532      4.71939454     53.34427814 Se
  atom       3.27289304      4.71939742     49.99563466 Se
  atom       0.00267653      6.60869704     51.66997823 W
  atom       1.63876226      7.55353368     53.34427103 Se
  atom       1.63875451      7.55353140     49.99565496 Se
  atom      -1.63146673      9.44284890     51.66997871 W
  atom       0.00461314     10.38766548     53.34429240 Se
  atom       0.00460773     10.38770357     49.99566297 Se
  atom      -3.26561474     12.27699623     51.66999469 W
  atom      -1.62954092     13.22182926     53.34431565 Se
  atom      -1.62953504     13.22182777     49.99570975 Se
  atom       6.54245891      0.94041659     51.67001096 W
  atom       8.17852694      1.88525591     53.34432585 Se
  atom       8.17853034      1.88525382     49.99568813 Se
  atom       4.90830269      3.77455325     51.66993379 W
  atom       6.54435195      4.71940906     53.34427544 Se
  atom       6.54439240      4.71940165     49.99566490 Se
  atom       3.27417106      6.60870648     51.66995278 W
  atom       4.91023434      7.55354557     53.34427170 Se
  atom       4.91024004      7.55353798     49.99564320 Se
  atom       1.64002661      9.44284951     51.66995531 W
  atom       3.27609320     10.38768755     53.34426830 Se
  atom       3.27608893     10.38769674     49.99563915 Se
  atom       0.00587382     12.27699261     51.67000754 W
  atom       1.64195141     13.22183060     53.34429580 Se
  atom       1.64192080     13.22184697     49.99569212 Se
  atom       9.81394300      0.94041856     51.66998512 W
  atom      11.45002679      1.88526101     53.34427478 Se
  atom      11.44999563      1.88524866     49.99565763 Se
  atom       8.17978717      3.77455815     51.66998001 W
  atom       9.81587020      4.71941961     53.34427134 Se
  atom       9.81584815      4.71939133     49.99566869 Se
  atom       6.54564115      6.60873601     51.66995771 W
  atom       8.18171945      7.55355583     53.34426426 Se
  atom       8.18171301      7.55354561     49.99562861 Se
  atom       4.91148672      9.44285633     51.66994473 W
  atom       6.54756795     10.38769174     53.34424711 Se
  atom       6.54756509     10.38768799     49.99564073 Se
  atom       3.27734342     12.27700168     51.66995741 W
  atom       4.91342407     13.22183898     53.34426095 Se
  atom       4.91341121     13.22183943     49.99563679 Se
  atom      13.08542288      0.94042679     51.66995498 W
  atom      14.72149979      1.88524275     53.34425559 Se
  atom      14.72149681      1.88525808     49.99564366 Se
  atom      11.45127705      3.77457176     51.66995392 W
  atom      13.08734889      4.71939768     53.34427982 Se
  atom      13.08735184      4.71939316     49.99563368 Se
  atom       9.81712553      6.60873182     51.66993849 W
  atom      11.45319780      7.55354356     53.34426528 Se
  atom      11.45320721      7.55354602     49.99563948 Se
  atom       8.18298560      9.44284730     51.66993889 W
  atom       9.81905504     10.38769057     53.34425956 Se
  atom       9.81906872     10.38768977     49.99564542 Se
  atom       6.54883195     12.27699780     51.66992613 W
  atom       8.18490712     13.22183860     53.34425500 Se
  atom       8.18491512     13.22184310     49.99563672 Se
  #
  # What follows is the current estimated Hessian matrix constructed by the BFGS algorithm.
  # This is NOT the true Hessian matrix of the system.
  # If you do not want this information here, switch it off using the "hessian_to_restart_geometry" keyword.
  #
  trust_radius             0.0003543651
  hessian_file
  
  -----------------------------------------------------------------------
  Completed first pass over input file geometry.in .
  -----------------------------------------------------------------------
  

  Basic array size parameters:
  | Number of species                 :        4
  | Number of atoms                   :       75
  | Number of lattice vectors         :        3
  | Max. basis fn. angular momentum   :        4
  | Max. atomic/ionic basis occupied n:        6
  | Max. number of basis fn. types    :        3
  | Max. radial fns per species/type  :       14
  | Max. logarithmic grid size        :     1483
  | Max. radial integration grid size :      143
  | Max. angular integration grid size:      434
  | Max. angular grid division number :        8
  | Radial grid for Hartree potential :     1483
  | Number of spin channels           :        2

------------------------------------------------------------
          Reading file control.in.
------------------------------------------------------------

  XC: Using HSE-functional with OMEGA =  0.110000E+00 <units>.
  XC: For the actual units (bohr^-1 or Angstrom^-1), see below.
  hse_unit: Unit for the HSE06 hybrid functional screening parameter set to bohr^(-1).
  Spin treatment: Spin density functional theory - collinear spins.
  Initial spin moment per atom:   1.0000
  Charge =   0.000000E+00: Neutral system requested explicitly.
  Scalar relativistic treatment of kinetic energy: on-site free-atom approximation to ZORA.
  Occupation type: Gaussian broadening, width =   0.100000E+00 eV.
  Found k-point grid:         4         4         1
  Using dipole correction.
  Calculating non-self-consistent second-variational spin-orbit coupling after scf-cycle
  You have request a SOC run with spin-polarization.
  symmetry_reduced_k_grid will be turned off.
  Calculating density of states with
  | energy interval :-10.000000  0.000000
  | points & tetrahedron method :  2001
  Calculating angular-momentum projected DOS with 
  | energy interval :-10.000000  0.000000
  | points & tetrahedron :  2001
  Using libMBD for calculating MBD and TS energies
 
  Reading configuration options for species Se                  .
  | Found nuclear charge :  34.0000
  | Found atomic mass :    78.9600000000000      amu
  | Found l_max for Hartree potential  :   6
  | Found cutoff potl. onset [A], width [A], scale factor :    4.00000    2.00000    1.00000
  | Threshold for basis-dependent cutoff potential is   0.100000E-03
  | Found data for basic radial integration grid :    55 points, outermost radius =    7.000 A
  | Found multiplier for basic radial grid :   2
  | Found angular grid specification: user-specified.
  | Specified grid contains     5 separate shells.
  | Check grid settings after all constraints further below.
  | Found free-atom valence shell :  4 s   2.000
  | Found free-atom valence shell :  4 p   4.000
  | Found free-atom valence shell :  3 d  10.000
  | Found free-ion valence shell :  4 s   1.000
  | Found free-ion valence shell :  4 p   3.000
  | Found free-ion valence shell :  3 d  10.000
  | Found hydrogenic basis function :  3 d   4.300
  | Found hydrogenic basis function :  2 p   1.600
  | Found hydrogenic basis function :  4 f   7.200
  | Found ionic basis function :  4 s , default cutoff radius.
  Species Se                  : Missing cutoff potential type.
  Defaulting to exp(1/x)/(1-x)^2 type cutoff potential.
  Species Se: No 'logarithmic' tag. Using default grid for free atom:
  | Default logarithmic grid data [bohr] : 0.1000E-03 0.1000E+03 0.1012E+01
  | Will include ionic basis functions of  2.0-fold positive Se                   ion.
  Species Se: On-site basis accuracy parameter (for Gram-Schmidt orthonormalisation) not specified.
  Using default value basis_acc =  0.1000000E-03.
  Species Se                  : Using default innermost maximum threshold i_radial=  2 for radial functions.
  Species Se                  : Default cutoff onset for free atom density etc. : 0.40000000E+01 AA.
  Species Se                  : Basic radial grid will be enhanced according to radial_multiplier =   2, to contain   111 grid points.
 
  Reading configuration options for species S                   .
  | Found nuclear charge :  16.0000
  | Found atomic mass :    32.0650000000000      amu
  | Found l_max for Hartree potential  :   6
  | Found cutoff potl. onset [A], width [A], scale factor :    4.00000    2.00000    1.00000
  | Threshold for basis-dependent cutoff potential is   0.100000E-03
  | Found data for basic radial integration grid :    44 points, outermost radius =    7.000 A
  | Found multiplier for basic radial grid :   2
  | Found angular grid specification: user-specified.
  | Specified grid contains     5 separate shells.
  | Check grid settings after all constraints further below.
  | Found free-atom valence shell :  3 s   2.000
  | Found free-atom valence shell :  3 p   4.000
  | Found free-ion valence shell :  3 s   1.000
  | Found free-ion valence shell :  3 p   3.000
  | Found ionic basis function :  3 d , default cutoff radius.
  | Found hydrogenic basis function :  2 p   1.800
  | Found hydrogenic basis function :  4 f   7.000
  | Found ionic basis function :  3 s , default cutoff radius.
  | Found hydrogenic extended basis function :  5 g  10.800
  Species S                   : Missing cutoff potential type.
  Defaulting to exp(1/x)/(1-x)^2 type cutoff potential.
  Species S : No 'logarithmic' tag. Using default grid for free atom:
  | Default logarithmic grid data [bohr] : 0.1000E-03 0.1000E+03 0.1012E+01
  | Will include ionic basis functions of  2.0-fold positive S                    ion.
  Species S : On-site basis accuracy parameter (for Gram-Schmidt orthonormalisation) not specified.
  Using default value basis_acc =  0.1000000E-03.
  Species S                   : Using default innermost maximum threshold i_radial=  2 for radial functions.
  Species S                   : Default cutoff onset for free atom density etc. : 0.40000000E+01 AA.
  Species S                   : Basic radial grid will be enhanced according to radial_multiplier =   2, to contain    89 grid points.
 
  Reading configuration options for species Mo                  .
  | Found nuclear charge :  42.0000
  | Found atomic mass :    95.9400000000000      amu
  | Found l_max for Hartree potential  :   6
  | Found cutoff potl. onset [A], width [A], scale factor :    4.00000    2.00000    1.00000
  | Threshold for basis-dependent cutoff potential is   0.100000E-03
  | Found data for basic radial integration grid :    59 points, outermost radius =    7.000 A
  | Found multiplier for basic radial grid :   2
  | Found angular grid specification: user-specified.
  | Specified grid contains     6 separate shells.
  | Check grid settings after all constraints further below.
  | Found free-atom valence shell :  5 s   1.000
  | Found free-atom valence shell :  4 p   6.000
  | Found free-atom valence shell :  4 d   5.000
  | Found free-ion valence shell :  5 s   0.000
  | Found free-ion valence shell :  4 p   6.000
  | Found free-ion valence shell :  4 d   4.000
  | Found hydrogenic basis function :  4 f   8.400
  | Found hydrogenic basis function :  3 d   2.800
  | Found ionic basis function :  5 p , default cutoff radius.
  | Found hydrogenic extended basis function :  5 g  12.000
  | Found ionic basis function :  5 s , default cutoff radius.
  Species Mo                  : Missing cutoff potential type.
  Defaulting to exp(1/x)/(1-x)^2 type cutoff potential.
  Species Mo: No 'logarithmic' tag. Using default grid for free atom:
  | Default logarithmic grid data [bohr] : 0.1000E-03 0.1000E+03 0.1012E+01
  | Will include ionic basis functions of  2.0-fold positive Mo                   ion.
  Species Mo: On-site basis accuracy parameter (for Gram-Schmidt orthonormalisation) not specified.
  Using default value basis_acc =  0.1000000E-03.
  Species Mo                  : Using default innermost maximum threshold i_radial=  2 for radial functions.
  Species Mo                  : Default cutoff onset for free atom density etc. : 0.40000000E+01 AA.
  Species Mo                  : Basic radial grid will be enhanced according to radial_multiplier =   2, to contain   119 grid points.
 
  Reading configuration options for species W                   .
  | Found nuclear charge :  74.0000
  | Found atomic mass :    183.840000000000      amu
  | Found l_max for Hartree potential  :   6
  | Found cutoff potl. onset [A], width [A], scale factor :    4.00000    2.00000    1.00000
  | Threshold for basis-dependent cutoff potential is   0.100000E-03
  | Found data for basic radial integration grid :    71 points, outermost radius =    7.000 A
  | Found multiplier for basic radial grid :   2
  | Found angular grid specification: user-specified.
  | Specified grid contains     6 separate shells.
  | Check grid settings after all constraints further below.
  | Found free-atom valence shell :  6 s   2.000
  | Found free-atom valence shell :  5 p   6.000
  | Found free-atom valence shell :  5 d   4.000
  | Found free-atom valence shell :  4 f  14.000
  | Found free-ion valence shell :  6 s   1.000
  | Found free-ion valence shell :  5 p   6.000
  | Found free-ion valence shell :  5 d   3.000
  | Found free-ion valence shell :  4 f  14.000
  | Found hydrogenic basis function :  4 f   7.800
  | Found hydrogenic basis function :  4 d   5.800
  | Found ionic basis function :  6 p , default cutoff radius.
  | Found hydrogenic extended basis function :  5 g  12.400
  | Found ionic basis function :  6 s , default cutoff radius.
  Species W                   : Missing cutoff potential type.
  Defaulting to exp(1/x)/(1-x)^2 type cutoff potential.
  Species W : No 'logarithmic' tag. Using default grid for free atom:
  | Default logarithmic grid data [bohr] : 0.1000E-03 0.1000E+03 0.1012E+01
  | Will include ionic basis functions of  2.0-fold positive W                    ion.
  Species W : On-site basis accuracy parameter (for Gram-Schmidt orthonormalisation) not specified.
  Using default value basis_acc =  0.1000000E-03.
  Species W                   : Using default innermost maximum threshold i_radial=  2 for radial functions.
  Species W                   : Default cutoff onset for free atom density etc. : 0.40000000E+01 AA.
  Species W                   : Basic radial grid will be enhanced according to radial_multiplier =   2, to contain   143 grid points.
 
  Finished reading input file 'control.in'.
 
------------------------------------------------------------


------------------------------------------------------------
          Reading geometry description geometry.in.
------------------------------------------------------------
  Vacuum level in z-axis :   0.103344E+03
  Found keyword 'hessian_file', indicating that this is the continuation of a structure optimization.
  However, the control.in file does not request the geometry to be optimized.
  Ignoring the request for a file 'hessian.aims' to be present.
  | The smallest distance between any two atoms is         2.52398044 AA.
  | The first atom of this pair is atom number                     17 .
  | The second atom of this pair is atom number                    31 .
  | Wigner-Seitz cell of the first atom image           0     0     1 .
  | (The Wigner-Seitz cell of the second atom is 0 0 0  by definition.)

  Symmetry information by spglib:
  | Precision set to  0.1E-04
  | Number of Operations  : 1
  | Space group           : 1
  | International         : P1        k
  | Schoenflies           : C1^1
  Input structure read successfully.
  The structure contains       75 atoms,  and a total of       3550.000 electrons.

  Input geometry:
  | Unit cell:
  |       16.35742505        0.00000000        0.00000000
  |       -8.17073830       14.17072870        0.00000000
  |        0.00000000        0.00000000      103.34910518
  | Atomic structure:
  |       Atom                x [A]            y [A]            z [A]
  |    1: Species W            -0.00051695        0.94042201       51.66995447
  |    2: Species Se            1.63555806        1.88524259       53.34426532
  |    3: Species Se            1.63556379        1.88524627       49.99565215
  |    4: Species W            -1.63466080        3.77455956       51.66998216
  |    5: Species Se            0.00141204        4.71939765       53.34428934
  |    6: Species Se            0.00140890        4.71939273       49.99565563
  |    7: Species W            -3.26881657        6.60870693       51.66996468
  |    8: Species Se           -1.63273938        7.55353384       53.34426212
  |    9: Species Se           -1.63273640        7.55353522       49.99565385
  |   10: Species W            -4.90295750        9.44285556       51.66995536
  |   11: Species Se           -3.26688055       10.38766857       53.34429800
  |   12: Species Se           -3.26687601       10.38770025       49.99566871
  |   13: Species W            -6.53710284       12.27698879       51.66993935
  |   14: Species Se           -4.90104792       13.22183689       53.34429228
  |   15: Species Se           -4.90101299       13.22182119       49.99567495
  |   16: Species W             3.27098133        0.94042233       51.66996015
  |   17: Species Se            4.90703604        1.88526113       53.34426843
  |   18: Species Se            4.90706698        1.88523163       49.99565698
  |   19: Species W             1.63683040        3.77455828       51.66996806
  |   20: Species Se            3.27290532        4.71939454       53.34427814
  |   21: Species Se            3.27289304        4.71939742       49.99563466
  |   22: Species W             0.00267653        6.60869704       51.66997823
  |   23: Species Se            1.63876226        7.55353368       53.34427103
  |   24: Species Se            1.63875451        7.55353140       49.99565496
  |   25: Species W            -1.63146673        9.44284890       51.66997871
  |   26: Species Se            0.00461314       10.38766548       53.34429240
  |   27: Species Se            0.00460773       10.38770357       49.99566297
  |   28: Species W            -3.26561474       12.27699623       51.66999469
  |   29: Species Se           -1.62954092       13.22182926       53.34431565
  |   30: Species Se           -1.62953504       13.22182777       49.99570975
  |   31: Species W             6.54245891        0.94041659       51.67001096
  |   32: Species Se            8.17852694        1.88525591       53.34432585
  |   33: Species Se            8.17853034        1.88525382       49.99568813
  |   34: Species W             4.90830269        3.77455325       51.66993379
  |   35: Species Se            6.54435195        4.71940906       53.34427544
  |   36: Species Se            6.54439240        4.71940165       49.99566490
  |   37: Species W             3.27417106        6.60870648       51.66995278
  |   38: Species Se            4.91023434        7.55354557       53.34427170
  |   39: Species Se            4.91024004        7.55353798       49.99564320
  |   40: Species W             1.64002661        9.44284951       51.66995531
  |   41: Species Se            3.27609320       10.38768755       53.34426830
  |   42: Species Se            3.27608893       10.38769674       49.99563915
  |   43: Species W             0.00587382       12.27699261       51.67000754
  |   44: Species Se            1.64195141       13.22183060       53.34429580
  |   45: Species Se            1.64192080       13.22184697       49.99569212
  |   46: Species W             9.81394300        0.94041856       51.66998512
  |   47: Species Se           11.45002679        1.88526101       53.34427478
  |   48: Species Se           11.44999563        1.88524866       49.99565763
  |   49: Species W             8.17978717        3.77455815       51.66998001
  |   50: Species Se            9.81587020        4.71941961       53.34427134
  |   51: Species Se            9.81584815        4.71939133       49.99566869
  |   52: Species W             6.54564115        6.60873601       51.66995771
  |   53: Species Se            8.18171945        7.55355583       53.34426426
  |   54: Species Se            8.18171301        7.55354561       49.99562861
  |   55: Species W             4.91148672        9.44285633       51.66994473
  |   56: Species Se            6.54756795       10.38769174       53.34424711
  |   57: Species Se            6.54756509       10.38768799       49.99564073
  |   58: Species W             3.27734342       12.27700168       51.66995741
  |   59: Species Se            4.91342407       13.22183898       53.34426095
  |   60: Species Se            4.91341121       13.22183943       49.99563679
  |   61: Species W            13.08542288        0.94042679       51.66995498
  |   62: Species Se           14.72149979        1.88524275       53.34425559
  |   63: Species Se           14.72149681        1.88525808       49.99564366
  |   64: Species W            11.45127705        3.77457176       51.66995392
  |   65: Species Se           13.08734889        4.71939768       53.34427982
  |   66: Species Se           13.08735184        4.71939316       49.99563368
  |   67: Species W             9.81712553        6.60873182       51.66993849
  |   68: Species Se           11.45319780        7.55354356       53.34426528
  |   69: Species Se           11.45320721        7.55354602       49.99563948
  |   70: Species W             8.18298560        9.44284730       51.66993889
  |   71: Species Se            9.81905504       10.38769057       53.34425956
  |   72: Species Se            9.81906872       10.38768977       49.99564542
  |   73: Species W             6.54883195       12.27699780       51.66992613
  |   74: Species Se            8.18490712       13.22183860       53.34425500
  |   75: Species Se            8.18491512       13.22184310       49.99563672

  Lattice parameters for 3D lattice (in Angstroms) :    16.357425   16.357583  103.349105
  Angle(s) between unit vectors (in degrees)       :    90.000000   90.000000  119.967434


  Quantities derived from the lattice vectors:
  | Reciprocal lattice vector 1:  0.384118  0.221480  0.000000
  | Reciprocal lattice vector 2: -0.000000  0.443392  0.000000
  | Reciprocal lattice vector 3:  0.000000  0.000000  0.060796
  | Unit cell volume                               :   0.239560E+05  A^3

  Fractional coordinates:
                         L1                L2                L3
       atom_frac         0.03311790        0.06636370        0.49995551  W
       atom_frac         0.16644277        0.13303780        0.51615604  Se
       atom_frac         0.16644325        0.13303806        0.48375506  Se
       atom_frac         0.03311784        0.26636312        0.49995578  W
       atom_frac         0.16644320        0.33303846        0.51615628  Se
       atom_frac         0.16644283        0.33303811        0.48375509  Se
       atom_frac         0.03311740        0.46636324        0.49995561  W
       atom_frac         0.16644263        0.53303779        0.51615601  Se
       atom_frac         0.16644286        0.53303788        0.48375507  Se
       atom_frac         0.03311791        0.66636344        0.49995552  W
       atom_frac         0.16644264        0.73303701        0.51615636  Se
       atom_frac         0.16644403        0.73303924        0.48375522  Se
       atom_frac         0.03311762        0.86636256        0.49995536  W
       atom_frac         0.16644223        0.93303860        0.51615631  Se
       atom_frac         0.16644381        0.93303749        0.48375528  Se
       atom_frac         0.23311872        0.06636372        0.49995556  W
       atom_frac         0.36644299        0.13303911        0.51615607  Se
       atom_frac         0.36644384        0.13303703        0.48375510  Se
       atom_frac         0.23311817        0.26636303        0.49995564  W
       atom_frac         0.36644359        0.33303824        0.51615617  Se
       atom_frac         0.36644294        0.33303844        0.48375489  Se
       atom_frac         0.23311755        0.46636254        0.49995574  W
       atom_frac         0.36644364        0.53303777        0.51615610  Se
       atom_frac         0.36644309        0.53303761        0.48375508  Se
       atom_frac         0.23311803        0.66636297        0.49995574  W
       atom_frac         0.36644306        0.73303679        0.51615631  Se
       atom_frac         0.36644407        0.73303948        0.48375516  Se
       atom_frac         0.23311807        0.86636308        0.49995590  W
       atom_frac         0.36644331        0.93303806        0.51615653  Se
       atom_frac         0.36644361        0.93303796        0.48375561  Se
       atom_frac         0.43311806        0.06636332        0.49995606  W
       atom_frac         0.56644317        0.13303874        0.51615663  Se
       atom_frac         0.56644330        0.13303859        0.48375540  Se
       atom_frac         0.43311722        0.26636268        0.49995531  W
       atom_frac         0.56644176        0.33303926        0.51615614  Se
       atom_frac         0.56644397        0.33303874        0.48375518  Se
       atom_frac         0.43311846        0.46636321        0.49995549  W
       atom_frac         0.56644327        0.53303861        0.51615611  Se
       atom_frac         0.56644335        0.53303808        0.48375497  Se
       atom_frac         0.43311856        0.66636302        0.49995552  W
       atom_frac         0.56644354        0.73303835        0.51615607  Se
       atom_frac         0.56644360        0.73303900        0.48375493  Se
       atom_frac         0.43311816        0.86636283        0.49995602  W
       atom_frac         0.56644380        0.93303816        0.51615634  Se
       atom_frac         0.56644251        0.93303931        0.48375544  Se
       atom_frac         0.63311807        0.06636346        0.49995581  W
       atom_frac         0.76644426        0.13303910        0.51615614  Se
       atom_frac         0.76644192        0.13303823        0.48375511  Se
       atom_frac         0.63311736        0.26636302        0.49995576  W
       atom_frac         0.76644416        0.33304001        0.51615610  Se
       atom_frac         0.76644182        0.33303801        0.48375522  Se
       atom_frac         0.63311859        0.46636529        0.49995554  W
       atom_frac         0.76644364        0.53303934        0.51615603  Se
       atom_frac         0.76644288        0.53303862        0.48375483  Se
       atom_frac         0.63311728        0.66636350        0.49995541  W
       atom_frac         0.76644306        0.73303864        0.51615587  Se
       atom_frac         0.76644275        0.73303838        0.48375495  Se
       atom_frac         0.63311753        0.86636347        0.49995554  W
       atom_frac         0.76644334        0.93303875        0.51615600  Se
       atom_frac         0.76644257        0.93303878        0.48375491  Se
       atom_frac         0.83311805        0.06636404        0.49995551  W
       atom_frac         0.96644288        0.13303781        0.51615595  Se
       atom_frac         0.96644324        0.13303889        0.48375497  Se
       atom_frac         0.83311814        0.26636398        0.49995550  W
       atom_frac         0.96644300        0.33303846        0.51615618  Se
       atom_frac         0.96644302        0.33303814        0.48375488  Se
       atom_frac         0.83311840        0.46636500        0.49995535  W
       atom_frac         0.96644280        0.53303847        0.51615604  Se
       atom_frac         0.96644346        0.53303864        0.48375493  Se
       atom_frac         0.83311781        0.66636286        0.49995536  W
       atom_frac         0.96644314        0.73303856        0.51615599  Se
       atom_frac         0.96644395        0.73303850        0.48375499  Se
       atom_frac         0.83311761        0.86636320        0.49995523  W
       atom_frac         0.96644321        0.93303872        0.51615594  Se
       atom_frac         0.96644386        0.93303904        0.48375491  Se

  Initial moments and charges:
  |  Atom   Moment         Charge        Species
  |     1   0.100000E+01   0.000000E+00   W
  |     2   0.100000E+01   0.000000E+00   Se
  |     3   0.100000E+01   0.000000E+00   Se
  |     4   0.100000E+01   0.000000E+00   W
  |     5   0.100000E+01   0.000000E+00   Se
  |     6   0.100000E+01   0.000000E+00   Se
  |     7   0.100000E+01   0.000000E+00   W
  |     8   0.100000E+01   0.000000E+00   Se
  |     9   0.100000E+01   0.000000E+00   Se
  |    10   0.100000E+01   0.000000E+00   W
  |    11   0.100000E+01   0.000000E+00   Se
  |    12   0.100000E+01   0.000000E+00   Se
  |    13   0.100000E+01   0.000000E+00   W
  |    14   0.100000E+01   0.000000E+00   Se
  |    15   0.100000E+01   0.000000E+00   Se
  |    16   0.100000E+01   0.000000E+00   W
  |    17   0.100000E+01   0.000000E+00   Se
  |    18   0.100000E+01   0.000000E+00   Se
  |    19   0.100000E+01   0.000000E+00   W
  |    20   0.100000E+01   0.000000E+00   Se
  |    21   0.100000E+01   0.000000E+00   Se
  |    22   0.100000E+01   0.000000E+00   W
  |    23   0.100000E+01   0.000000E+00   Se
  |    24   0.100000E+01   0.000000E+00   Se
  |    25   0.100000E+01   0.000000E+00   W
  |    26   0.100000E+01   0.000000E+00   Se
  |    27   0.100000E+01   0.000000E+00   Se
  |    28   0.100000E+01   0.000000E+00   W
  |    29   0.100000E+01   0.000000E+00   Se
  |    30   0.100000E+01   0.000000E+00   Se
  |    31   0.100000E+01   0.000000E+00   W
  |    32   0.100000E+01   0.000000E+00   Se
  |    33   0.100000E+01   0.000000E+00   Se
  |    34   0.100000E+01   0.000000E+00   W
  |    35   0.100000E+01   0.000000E+00   Se
  |    36   0.100000E+01   0.000000E+00   Se
  |    37   0.100000E+01   0.000000E+00   W
  |    38   0.100000E+01   0.000000E+00   Se
  |    39   0.100000E+01   0.000000E+00   Se
  |    40   0.100000E+01   0.000000E+00   W
  |    41   0.100000E+01   0.000000E+00   Se
  |    42   0.100000E+01   0.000000E+00   Se
  |    43   0.100000E+01   0.000000E+00   W
  |    44   0.100000E+01   0.000000E+00   Se
  |    45   0.100000E+01   0.000000E+00   Se
  |    46   0.100000E+01   0.000000E+00   W
  |    47   0.100000E+01   0.000000E+00   Se
  |    48   0.100000E+01   0.000000E+00   Se
  |    49   0.100000E+01   0.000000E+00   W
  |    50   0.100000E+01   0.000000E+00   Se
  |    51   0.100000E+01   0.000000E+00   Se
  |    52   0.100000E+01   0.000000E+00   W
  |    53   0.100000E+01   0.000000E+00   Se
  |    54   0.100000E+01   0.000000E+00   Se
  |    55   0.100000E+01   0.000000E+00   W
  |    56   0.100000E+01   0.000000E+00   Se
  |    57   0.100000E+01   0.000000E+00   Se
  |    58   0.100000E+01   0.000000E+00   W
  |    59   0.100000E+01   0.000000E+00   Se
  |    60   0.100000E+01   0.000000E+00   Se
  |    61   0.100000E+01   0.000000E+00   W
  |    62   0.100000E+01   0.000000E+00   Se
  |    63   0.100000E+01   0.000000E+00   Se
  |    64   0.100000E+01   0.000000E+00   W
  |    65   0.100000E+01   0.000000E+00   Se
  |    66   0.100000E+01   0.000000E+00   Se
  |    67   0.100000E+01   0.000000E+00   W
  |    68   0.100000E+01   0.000000E+00   Se
  |    69   0.100000E+01   0.000000E+00   Se
  |    70   0.100000E+01   0.000000E+00   W
  |    71   0.100000E+01   0.000000E+00   Se
  |    72   0.100000E+01   0.000000E+00   Se
  |    73   0.100000E+01   0.000000E+00   W
  |    74   0.100000E+01   0.000000E+00   Se
  |    75   0.100000E+01   0.000000E+00   Se

 
  Finished reading input file 'control.in'.
 

------------------------------------------------------------
          Reading geometry description geometry.in.
------------------------------------------------------------
 
  Consistency checks for stacksize environment parameter are next.
 
  | Maximum stacksize for task 0: unlimited
  | Maximum stacksize for task 1: unlimited
  | Maximum stacksize for task 2: unlimited
  | Maximum stacksize for task 3: unlimited
  | Maximum stacksize for task 4: unlimited
  | Maximum stacksize for task 5: unlimited
  | Maximum stacksize for task 6: unlimited
  | Maximum stacksize for task 7: unlimited
  | Maximum stacksize for task 8: unlimited
  | Maximum stacksize for task 9: unlimited
  | Maximum stacksize for task 10: unlimited
  | Maximum stacksize for task 11: unlimited
  | Maximum stacksize for task 12: unlimited
  | Maximum stacksize for task 13: unlimited
  | Maximum stacksize for task 14: unlimited
  | Maximum stacksize for task 15: unlimited
  | Maximum stacksize for task 16: unlimited
  | Maximum stacksize for task 17: unlimited
  | Maximum stacksize for task 18: unlimited
  | Maximum stacksize for task 19: unlimited
  | Maximum stacksize for task 20: unlimited
  | Maximum stacksize for task 21: unlimited
  | Maximum stacksize for task 22: unlimited
  | Maximum stacksize for task 23: unlimited
  | Maximum stacksize for task 24: unlimited
  | Maximum stacksize for task 25: unlimited
  | Maximum stacksize for task 26: unlimited
  | Maximum stacksize for task 27: unlimited
  | Maximum stacksize for task 28: unlimited
  | Maximum stacksize for task 29: unlimited
  | Maximum stacksize for task 30: unlimited
  | Maximum stacksize for task 31: unlimited
  | Maximum stacksize for task 32: unlimited
  | Maximum stacksize for task 33: unlimited
  | Maximum stacksize for task 34: unlimited
  | Maximum stacksize for task 35: unlimited
  | Maximum stacksize for task 36: unlimited
  | Maximum stacksize for task 37: unlimited
  | Maximum stacksize for task 38: unlimited
  | Maximum stacksize for task 39: unlimited
  | Maximum stacksize for task 40: unlimited
  | Maximum stacksize for task 41: unlimited
  | Maximum stacksize for task 42: unlimited
  | Maximum stacksize for task 43: unlimited
  | Maximum stacksize for task 44: unlimited
  | Maximum stacksize for task 45: unlimited
  | Maximum stacksize for task 46: unlimited
  | Maximum stacksize for task 47: unlimited
  | Maximum stacksize for task 48: unlimited
  | Maximum stacksize for task 49: unlimited
  | Maximum stacksize for task 50: unlimited
  | Maximum stacksize for task 51: unlimited
  | Maximum stacksize for task 52: unlimited
  | Maximum stacksize for task 53: unlimited
  | Maximum stacksize for task 54: unlimited
  | Maximum stacksize for task 55: unlimited
  | Maximum stacksize for task 56: unlimited
  | Maximum stacksize for task 57: unlimited
  | Maximum stacksize for task 58: unlimited
  | Maximum stacksize for task 59: unlimited
  | Maximum stacksize for task 60: unlimited
  | Maximum stacksize for task 61: unlimited
  | Maximum stacksize for task 62: unlimited
  | Maximum stacksize for task 63: unlimited
  | Maximum stacksize for task 64: unlimited
  | Maximum stacksize for task 65: unlimited
  | Maximum stacksize for task 66: unlimited
  | Maximum stacksize for task 67: unlimited
  | Maximum stacksize for task 68: unlimited
  | Maximum stacksize for task 69: unlimited
  | Maximum stacksize for task 70: unlimited
  | Maximum stacksize for task 71: unlimited
  | Maximum stacksize for task 72: unlimited
  | Maximum stacksize for task 73: unlimited
  | Maximum stacksize for task 74: unlimited
  | Maximum stacksize for task 75: unlimited
  | Maximum stacksize for task 76: unlimited
  | Maximum stacksize for task 77: unlimited
  | Maximum stacksize for task 78: unlimited
  | Maximum stacksize for task 79: unlimited
  | Maximum stacksize for task 80: unlimited
  | Maximum stacksize for task 81: unlimited
  | Maximum stacksize for task 82: unlimited
  | Maximum stacksize for task 83: unlimited
  | Maximum stacksize for task 84: unlimited
  | Maximum stacksize for task 85: unlimited
  | Maximum stacksize for task 86: unlimited
  | Maximum stacksize for task 87: unlimited
  | Maximum stacksize for task 88: unlimited
  | Maximum stacksize for task 89: unlimited
  | Maximum stacksize for task 90: unlimited
  | Maximum stacksize for task 91: unlimited
  | Maximum stacksize for task 92: unlimited
  | Maximum stacksize for task 93: unlimited
  | Maximum stacksize for task 94: unlimited
  | Maximum stacksize for task 95: unlimited
  | Maximum stacksize for task 96: unlimited
  | Maximum stacksize for task 97: unlimited
  | Maximum stacksize for task 98: unlimited
  | Maximum stacksize for task 99: unlimited
  | Maximum stacksize for task 100: unlimited
  | Maximum stacksize for task 101: unlimited
  | Maximum stacksize for task 102: unlimited
  | Maximum stacksize for task 103: unlimited
  | Maximum stacksize for task 104: unlimited
  | Maximum stacksize for task 105: unlimited
  | Maximum stacksize for task 106: unlimited
  | Maximum stacksize for task 107: unlimited
  | Maximum stacksize for task 108: unlimited
  | Maximum stacksize for task 109: unlimited
  | Maximum stacksize for task 110: unlimited
  | Maximum stacksize for task 111: unlimited
  | Maximum stacksize for task 112: unlimited
  | Maximum stacksize for task 113: unlimited
  | Maximum stacksize for task 114: unlimited
  | Maximum stacksize for task 115: unlimited
  | Maximum stacksize for task 116: unlimited
  | Maximum stacksize for task 117: unlimited
  | Maximum stacksize for task 118: unlimited
  | Maximum stacksize for task 119: unlimited
  | Maximum stacksize for task 120: unlimited
  | Maximum stacksize for task 121: unlimited
  | Maximum stacksize for task 122: unlimited
  | Maximum stacksize for task 123: unlimited
  | Maximum stacksize for task 124: unlimited
  | Maximum stacksize for task 125: unlimited
  | Maximum stacksize for task 126: unlimited
  | Maximum stacksize for task 127: unlimited
  | Maximum stacksize for task 128: unlimited
  | Maximum stacksize for task 129: unlimited
  | Maximum stacksize for task 130: unlimited
  | Maximum stacksize for task 131: unlimited
  | Maximum stacksize for task 132: unlimited
  | Maximum stacksize for task 133: unlimited
  | Maximum stacksize for task 134: unlimited
  | Maximum stacksize for task 135: unlimited
  | Maximum stacksize for task 136: unlimited
  | Maximum stacksize for task 137: unlimited
  | Maximum stacksize for task 138: unlimited
  | Maximum stacksize for task 139: unlimited
  | Maximum stacksize for task 140: unlimited
  | Maximum stacksize for task 141: unlimited
  | Maximum stacksize for task 142: unlimited
  | Maximum stacksize for task 143: unlimited
  | Maximum stacksize for task 144: unlimited
  | Maximum stacksize for task 145: unlimited
  | Maximum stacksize for task 146: unlimited
  | Maximum stacksize for task 147: unlimited
  | Maximum stacksize for task 148: unlimited
  | Maximum stacksize for task 149: unlimited
  | Maximum stacksize for task 150: unlimited
  | Maximum stacksize for task 151: unlimited
  | Maximum stacksize for task 152: unlimited
  | Maximum stacksize for task 153: unlimited
  | Maximum stacksize for task 154: unlimited
  | Maximum stacksize for task 155: unlimited
  | Maximum stacksize for task 156: unlimited
  | Maximum stacksize for task 157: unlimited
  | Maximum stacksize for task 158: unlimited
  | Maximum stacksize for task 159: unlimited
  | Maximum stacksize for task 160: unlimited
  | Maximum stacksize for task 161: unlimited
  | Maximum stacksize for task 162: unlimited
  | Maximum stacksize for task 163: unlimited
  | Maximum stacksize for task 164: unlimited
  | Maximum stacksize for task 165: unlimited
  | Maximum stacksize for task 166: unlimited
  | Maximum stacksize for task 167: unlimited
  | Maximum stacksize for task 168: unlimited
  | Maximum stacksize for task 169: unlimited
  | Maximum stacksize for task 170: unlimited
  | Maximum stacksize for task 171: unlimited
  | Maximum stacksize for task 172: unlimited
  | Maximum stacksize for task 173: unlimited
  | Maximum stacksize for task 174: unlimited
  | Maximum stacksize for task 175: unlimited
  | Maximum stacksize for task 176: unlimited
  | Maximum stacksize for task 177: unlimited
  | Maximum stacksize for task 178: unlimited
  | Maximum stacksize for task 179: unlimited
  | Maximum stacksize for task 180: unlimited
  | Maximum stacksize for task 181: unlimited
  | Maximum stacksize for task 182: unlimited
  | Maximum stacksize for task 183: unlimited
  | Maximum stacksize for task 184: unlimited
  | Maximum stacksize for task 185: unlimited
  | Maximum stacksize for task 186: unlimited
  | Maximum stacksize for task 187: unlimited
  | Maximum stacksize for task 188: unlimited
  | Maximum stacksize for task 189: unlimited
  | Maximum stacksize for task 190: unlimited
  | Maximum stacksize for task 191: unlimited
  | Maximum stacksize for task 192: unlimited
  | Maximum stacksize for task 193: unlimited
  | Maximum stacksize for task 194: unlimited
  | Maximum stacksize for task 195: unlimited
  | Maximum stacksize for task 196: unlimited
  | Maximum stacksize for task 197: unlimited
  | Maximum stacksize for task 198: unlimited
  | Maximum stacksize for task 199: unlimited
  | Maximum stacksize for task 200: unlimited
  | Maximum stacksize for task 201: unlimited
  | Maximum stacksize for task 202: unlimited
  | Maximum stacksize for task 203: unlimited
  | Maximum stacksize for task 204: unlimited
  | Maximum stacksize for task 205: unlimited
  | Maximum stacksize for task 206: unlimited
  | Maximum stacksize for task 207: unlimited
  | Maximum stacksize for task 208: unlimited
  | Maximum stacksize for task 209: unlimited
  | Maximum stacksize for task 210: unlimited
  | Maximum stacksize for task 211: unlimited
  | Maximum stacksize for task 212: unlimited
  | Maximum stacksize for task 213: unlimited
  | Maximum stacksize for task 214: unlimited
  | Maximum stacksize for task 215: unlimited
  | Current stacksize for task 0: unlimited
  | Current stacksize for task 1: unlimited
  | Current stacksize for task 2: unlimited
  | Current stacksize for task 3: unlimited
  | Current stacksize for task 4: unlimited
  | Current stacksize for task 5: unlimited
  | Current stacksize for task 6: unlimited
  | Current stacksize for task 7: unlimited
  | Current stacksize for task 8: unlimited
  | Current stacksize for task 9: unlimited
  | Current stacksize for task 10: unlimited
  | Current stacksize for task 11: unlimited
  | Current stacksize for task 12: unlimited
  | Current stacksize for task 13: unlimited
  | Current stacksize for task 14: unlimited
  | Current stacksize for task 15: unlimited
  | Current stacksize for task 16: unlimited
  | Current stacksize for task 17: unlimited
  | Current stacksize for task 18: unlimited
  | Current stacksize for task 19: unlimited
  | Current stacksize for task 20: unlimited
  | Current stacksize for task 21: unlimited
  | Current stacksize for task 22: unlimited
  | Current stacksize for task 23: unlimited
  | Current stacksize for task 24: unlimited
  | Current stacksize for task 25: unlimited
  | Current stacksize for task 26: unlimited
  | Current stacksize for task 27: unlimited
  | Current stacksize for task 28: unlimited
  | Current stacksize for task 29: unlimited
  | Current stacksize for task 30: unlimited
  | Current stacksize for task 31: unlimited
  | Current stacksize for task 32: unlimited
  | Current stacksize for task 33: unlimited
  | Current stacksize for task 34: unlimited
  | Current stacksize for task 35: unlimited
  | Current stacksize for task 36: unlimited
  | Current stacksize for task 37: unlimited
  | Current stacksize for task 38: unlimited
  | Current stacksize for task 39: unlimited
  | Current stacksize for task 40: unlimited
  | Current stacksize for task 41: unlimited
  | Current stacksize for task 42: unlimited
  | Current stacksize for task 43: unlimited
  | Current stacksize for task 44: unlimited
  | Current stacksize for task 45: unlimited
  | Current stacksize for task 46: unlimited
  | Current stacksize for task 47: unlimited
  | Current stacksize for task 48: unlimited
  | Current stacksize for task 49: unlimited
  | Current stacksize for task 50: unlimited
  | Current stacksize for task 51: unlimited
  | Current stacksize for task 52: unlimited
  | Current stacksize for task 53: unlimited
  | Current stacksize for task 54: unlimited
  | Current stacksize for task 55: unlimited
  | Current stacksize for task 56: unlimited
  | Current stacksize for task 57: unlimited
  | Current stacksize for task 58: unlimited
  | Current stacksize for task 59: unlimited
  | Current stacksize for task 60: unlimited
  | Current stacksize for task 61: unlimited
  | Current stacksize for task 62: unlimited
  | Current stacksize for task 63: unlimited
  | Current stacksize for task 64: unlimited
  | Current stacksize for task 65: unlimited
  | Current stacksize for task 66: unlimited
  | Current stacksize for task 67: unlimited
  | Current stacksize for task 68: unlimited
  | Current stacksize for task 69: unlimited
  | Current stacksize for task 70: unlimited
  | Current stacksize for task 71: unlimited
  | Current stacksize for task 72: unlimited
  | Current stacksize for task 73: unlimited
  | Current stacksize for task 74: unlimited
  | Current stacksize for task 75: unlimited
  | Current stacksize for task 76: unlimited
  | Current stacksize for task 77: unlimited
  | Current stacksize for task 78: unlimited
  | Current stacksize for task 79: unlimited
  | Current stacksize for task 80: unlimited
  | Current stacksize for task 81: unlimited
  | Current stacksize for task 82: unlimited
  | Current stacksize for task 83: unlimited
  | Current stacksize for task 84: unlimited
  | Current stacksize for task 85: unlimited
  | Current stacksize for task 86: unlimited
  | Current stacksize for task 87: unlimited
  | Current stacksize for task 88: unlimited
  | Current stacksize for task 89: unlimited
  | Current stacksize for task 90: unlimited
  | Current stacksize for task 91: unlimited
  | Current stacksize for task 92: unlimited
  | Current stacksize for task 93: unlimited
  | Current stacksize for task 94: unlimited
  | Current stacksize for task 95: unlimited
  | Current stacksize for task 96: unlimited
  | Current stacksize for task 97: unlimited
  | Current stacksize for task 98: unlimited
  | Current stacksize for task 99: unlimited
  | Current stacksize for task 100: unlimited
  | Current stacksize for task 101: unlimited
  | Current stacksize for task 102: unlimited
  | Current stacksize for task 103: unlimited
  | Current stacksize for task 104: unlimited
  | Current stacksize for task 105: unlimited
  | Current stacksize for task 106: unlimited
  | Current stacksize for task 107: unlimited
  | Current stacksize for task 108: unlimited
  | Current stacksize for task 109: unlimited
  | Current stacksize for task 110: unlimited
  | Current stacksize for task 111: unlimited
  | Current stacksize for task 112: unlimited
  | Current stacksize for task 113: unlimited
  | Current stacksize for task 114: unlimited
  | Current stacksize for task 115: unlimited
  | Current stacksize for task 116: unlimited
  | Current stacksize for task 117: unlimited
  | Current stacksize for task 118: unlimited
  | Current stacksize for task 119: unlimited
  | Current stacksize for task 120: unlimited
  | Current stacksize for task 121: unlimited
  | Current stacksize for task 122: unlimited
  | Current stacksize for task 123: unlimited
  | Current stacksize for task 124: unlimited
  | Current stacksize for task 125: unlimited
  | Current stacksize for task 126: unlimited
  | Current stacksize for task 127: unlimited
  | Current stacksize for task 128: unlimited
  | Current stacksize for task 129: unlimited
  | Current stacksize for task 130: unlimited
  | Current stacksize for task 131: unlimited
  | Current stacksize for task 132: unlimited
  | Current stacksize for task 133: unlimited
  | Current stacksize for task 134: unlimited
  | Current stacksize for task 135: unlimited
  | Current stacksize for task 136: unlimited
  | Current stacksize for task 137: unlimited
  | Current stacksize for task 138: unlimited
  | Current stacksize for task 139: unlimited
  | Current stacksize for task 140: unlimited
  | Current stacksize for task 141: unlimited
  | Current stacksize for task 142: unlimited
  | Current stacksize for task 143: unlimited
  | Current stacksize for task 144: unlimited
  | Current stacksize for task 145: unlimited
  | Current stacksize for task 146: unlimited
  | Current stacksize for task 147: unlimited
  | Current stacksize for task 148: unlimited
  | Current stacksize for task 149: unlimited
  | Current stacksize for task 150: unlimited
  | Current stacksize for task 151: unlimited
  | Current stacksize for task 152: unlimited
  | Current stacksize for task 153: unlimited
  | Current stacksize for task 154: unlimited
  | Current stacksize for task 155: unlimited
  | Current stacksize for task 156: unlimited
  | Current stacksize for task 157: unlimited
  | Current stacksize for task 158: unlimited
  | Current stacksize for task 159: unlimited
  | Current stacksize for task 160: unlimited
  | Current stacksize for task 161: unlimited
  | Current stacksize for task 162: unlimited
  | Current stacksize for task 163: unlimited
  | Current stacksize for task 164: unlimited
  | Current stacksize for task 165: unlimited
  | Current stacksize for task 166: unlimited
  | Current stacksize for task 167: unlimited
  | Current stacksize for task 168: unlimited
  | Current stacksize for task 169: unlimited
  | Current stacksize for task 170: unlimited
  | Current stacksize for task 171: unlimited
  | Current stacksize for task 172: unlimited
  | Current stacksize for task 173: unlimited
  | Current stacksize for task 174: unlimited
  | Current stacksize for task 175: unlimited
  | Current stacksize for task 176: unlimited
  | Current stacksize for task 177: unlimited
  | Current stacksize for task 178: unlimited
  | Current stacksize for task 179: unlimited
  | Current stacksize for task 180: unlimited
  | Current stacksize for task 181: unlimited
  | Current stacksize for task 182: unlimited
  | Current stacksize for task 183: unlimited
  | Current stacksize for task 184: unlimited
  | Current stacksize for task 185: unlimited
  | Current stacksize for task 186: unlimited
  | Current stacksize for task 187: unlimited
  | Current stacksize for task 188: unlimited
  | Current stacksize for task 189: unlimited
  | Current stacksize for task 190: unlimited
  | Current stacksize for task 191: unlimited
  | Current stacksize for task 192: unlimited
  | Current stacksize for task 193: unlimited
  | Current stacksize for task 194: unlimited
  | Current stacksize for task 195: unlimited
  | Current stacksize for task 196: unlimited
  | Current stacksize for task 197: unlimited
  | Current stacksize for task 198: unlimited
  | Current stacksize for task 199: unlimited
  | Current stacksize for task 200: unlimited
  | Current stacksize for task 201: unlimited
  | Current stacksize for task 202: unlimited
  | Current stacksize for task 203: unlimited
  | Current stacksize for task 204: unlimited
  | Current stacksize for task 205: unlimited
  | Current stacksize for task 206: unlimited
  | Current stacksize for task 207: unlimited
  | Current stacksize for task 208: unlimited
  | Current stacksize for task 209: unlimited
  | Current stacksize for task 210: unlimited
  | Current stacksize for task 211: unlimited
  | Current stacksize for task 212: unlimited
  | Current stacksize for task 213: unlimited
  | Current stacksize for task 214: unlimited
  | Current stacksize for task 215: unlimited
 
  Consistency checks for the contents of control.in are next.
 
  HSE06 screening parameters: omega_HF  =      0.11000000 bohr^-1, and
                              omega_PBE =      0.11000000 bohr^-1.
  MPI_IN_PLACE appears to work with this MPI implementation.
  | Keeping use_mpi_in_place .true. (see manual).
  Explicit treatment of the Coulomb operator is needed, but the RI method is not specified.
  Coulomb operator: Defaulting to 'LVL fast' resolution of identity - RI_type = LVL_fast
  Species Se: Using default value for prodbas_acc =   1.000000E-04.
  Species Se: Using default value max_l_prodbas =    20.
  Species S: Using default value for prodbas_acc =   1.000000E-04.
  Species S: Using default value max_l_prodbas =    20.
  Species Mo: Using default value for prodbas_acc =   1.000000E-04.
  Species Mo: Using default value max_l_prodbas =    20.
  Species W: Using default value for prodbas_acc =   1.000000E-04.
  Species W: Using default value max_l_prodbas =    20.
  Target number of points in a grid batch is not set. Defaulting to  100
  Method for grid partitioning is not set. Defaulting to parallel hash+maxmin partitioning.
  Batch size limit is not set. Defaulting to    200
  By default, will store active basis functions for each batch.
  If in need of memory, prune_basis_once .false. can be used to disable this option.
  communication_type for Hartree potential was not specified.
  Defaulting to calc_hartree .
  Defaulting to Pulay charge density mixer.
  Pulay mixer: Number of relevant iterations not set.
  Defaulting to    8 iterations.
  Pulay mixer: Number of initial linear mixing iterations not set.
  Defaulting to    0 iterations.
  Work space size for distributed Hartree potential not set.
  Defaulting to   0.200000E+03 MB.
  Mixing parameter for charge density mixing has not been set.
[...]
  |    32       34.078413       -0.078413        7.883786       15.948773       10.198715        0.047139
  |    33       34.078387       -0.078387        7.883781       15.948739       10.198725        0.047142
  |    34       73.843194        0.156806       10.360565       24.745409       24.624864       14.112357
  |    35       34.078408       -0.078408        7.883784       15.948767       10.198717        0.047140
  |    36       34.078387       -0.078387        7.883781       15.948742       10.198723        0.047141
  |    37       73.843205        0.156795       10.360565       24.745414       24.624870       14.112356
  |    38       34.078405       -0.078405        7.883783       15.948757       10.198724        0.047141
  |    39       34.078395       -0.078395        7.883781       15.948746       10.198726        0.047142
  |    40       73.843199        0.156801       10.360566       24.745411       24.624866       14.112356
  |    41       34.078407       -0.078407        7.883783       15.948758       10.198724        0.047141
  |    42       34.078387       -0.078387        7.883782       15.948741       10.198723        0.047141
  |    43       73.843195        0.156805       10.360564       24.745409       24.624865       14.112357
  |    44       34.078409       -0.078409        7.883783       15.948762       10.198723        0.047141
  |    45       34.078385       -0.078385        7.883779       15.948734       10.198730        0.047143
  |    46       73.843199        0.156801       10.360563       24.745409       24.624871       14.112356
  |    47       34.078412       -0.078412        7.883783       15.948765       10.198723        0.047141
  |    48       34.078392       -0.078392        7.883782       15.948746       10.198723        0.047141
  |    49       73.843197        0.156803       10.360564       24.745408       24.624868       14.112357
  |    50       34.078408       -0.078408        7.883784       15.948766       10.198719        0.047140
  |    51       34.078390       -0.078390        7.883780       15.948743       10.198725        0.047142
  |    52       73.843209        0.156791       10.360565       24.745415       24.624872       14.112356
  |    53       34.078404       -0.078404        7.883783       15.948756       10.198724        0.047141
  |    54       34.078397       -0.078397        7.883782       15.948749       10.198725        0.047141
  |    55       73.843196        0.156804       10.360561       24.745408       24.624871       14.112357
  |    56       34.078407       -0.078407        7.883783       15.948762       10.198722        0.047141
  |    57       34.078391       -0.078391        7.883781       15.948745       10.198723        0.047141
  |    58       73.843199        0.156801       10.360563       24.745409       24.624871       14.112356
  |    59       34.078408       -0.078408        7.883783       15.948764       10.198721        0.047140
  |    60       34.078392       -0.078392        7.883782       15.948750       10.198720        0.047140
  |    61       73.843201        0.156799       10.360567       24.745409       24.624868       14.112357
  |    62       34.078398       -0.078398        7.883783       15.948745       10.198728        0.047143
  |    63       34.078398       -0.078398        7.883784       15.948754       10.198720        0.047140
  |    64       73.843201        0.156799       10.360568       24.745410       24.624868       14.112356
  |    65       34.078401       -0.078401        7.883785       15.948752       10.198722        0.047141
  |    66       34.078400       -0.078400        7.883785       15.948759       10.198716        0.047139
  |    67       73.843213        0.156787       10.360569       24.745416       24.624873       14.112356
  |    68       34.078391       -0.078391        7.883784       15.948741       10.198724        0.047141
  |    69       34.078392       -0.078392        7.883783       15.948746       10.198722        0.047141
  |    70       73.843201        0.156799       10.360565       24.745409       24.624871       14.112356
  |    71       34.078394       -0.078394        7.883785       15.948746       10.198723        0.047141
  |    72       34.078399       -0.078399        7.883782       15.948750       10.198725        0.047141
  |    73       73.843203        0.156797       10.360570       24.745410       24.624866       14.112356
  |    74       34.078396       -0.078396        7.883784       15.948751       10.198719        0.047141
  |    75       34.078399       -0.078399        7.883782       15.948756       10.198720        0.047141
  |
  | Total     3550.000000       -0.000000
 
  Summary of the per-atom spin analysis:
  |
  |  atom   spin      l=0         l=1         l=2         l=3
  |     1   -0.000001   -0.000000   -0.000000   -0.000000   -0.000000
  |     2    0.000000    0.000000    0.000000    0.000000    0.000000
  |     3    0.000000    0.000000    0.000000    0.000000    0.000000
  |     4   -0.000001   -0.000000   -0.000000   -0.000000   -0.000000
  |     5    0.000000    0.000000    0.000000    0.000000    0.000000
  |     6    0.000000    0.000000    0.000000    0.000000    0.000000
  |     7   -0.000001   -0.000000   -0.000000   -0.000000   -0.000000
  |     8    0.000000    0.000000    0.000000    0.000000    0.000000
  |     9    0.000000    0.000000    0.000000    0.000000    0.000000
  |    10   -0.000001   -0.000000   -0.000000   -0.000000   -0.000000
  |    11    0.000000    0.000000    0.000000    0.000000    0.000000
  |    12    0.000000    0.000000    0.000000    0.000000    0.000000
  |    13   -0.000001   -0.000000   -0.000000   -0.000000   -0.000000
  |    14    0.000000    0.000000    0.000000    0.000000    0.000000
  |    15    0.000000    0.000000    0.000000    0.000000    0.000000
  |    16   -0.000001   -0.000000   -0.000000   -0.000000   -0.000000
  |    17    0.000000    0.000000    0.000000    0.000000    0.000000
  |    18    0.000000    0.000000    0.000000    0.000000    0.000000
  |    19   -0.000001   -0.000000   -0.000000   -0.000000   -0.000000
  |    20    0.000000    0.000000    0.000000    0.000000    0.000000
  |    21    0.000000    0.000000    0.000000    0.000000    0.000000
  |    22   -0.000001   -0.000000   -0.000000   -0.000000   -0.000000
  |    23    0.000000    0.000000    0.000000    0.000000    0.000000
  |    24    0.000000    0.000000    0.000000    0.000000    0.000000
  |    25   -0.000001   -0.000000   -0.000000   -0.000000   -0.000000
  |    26    0.000000    0.000000    0.000000    0.000000    0.000000
  |    27    0.000000    0.000000    0.000000    0.000000    0.000000
  |    28   -0.000001   -0.000000   -0.000000   -0.000000   -0.000000
  |    29    0.000000    0.000000    0.000000    0.000000    0.000000
  |    30    0.000000    0.000000    0.000000    0.000000    0.000000
  |    31   -0.000001   -0.000000   -0.000000   -0.000000   -0.000000
  |    32    0.000000    0.000000    0.000000    0.000000    0.000000
  |    33    0.000000    0.000000    0.000000    0.000000    0.000000
  |    34   -0.000001   -0.000000   -0.000000   -0.000000   -0.000000
  |    35    0.000000    0.000000    0.000000    0.000000    0.000000
  |    36    0.000000    0.000000    0.000000    0.000000    0.000000
  |    37   -0.000001   -0.000000   -0.000000   -0.000000   -0.000000
  |    38    0.000000    0.000000    0.000000    0.000000    0.000000
  |    39    0.000000    0.000000    0.000000    0.000000    0.000000
  |    40   -0.000001   -0.000000   -0.000000   -0.000000   -0.000000
  |    41    0.000000    0.000000    0.000000    0.000000    0.000000
  |    42    0.000000    0.000000    0.000000    0.000000    0.000000
  |    43   -0.000001   -0.000000   -0.000000   -0.000000   -0.000000
  |    44    0.000000    0.000000    0.000000    0.000000    0.000000
  |    45    0.000000    0.000000    0.000000    0.000000    0.000000
  |    46   -0.000001   -0.000000   -0.000000   -0.000000   -0.000000
  |    47    0.000000    0.000000    0.000000    0.000000    0.000000
  |    48    0.000000    0.000000    0.000000    0.000000    0.000000
  |    49   -0.000001   -0.000000   -0.000000   -0.000000   -0.000000
  |    50    0.000000    0.000000    0.000000    0.000000    0.000000
  |    51    0.000000    0.000000    0.000000    0.000000    0.000000
  |    52   -0.000001   -0.000000   -0.000000   -0.000000   -0.000000
  |    53    0.000000    0.000000    0.000000    0.000000    0.000000
  |    54    0.000000    0.000000    0.000000    0.000000    0.000000
  |    55   -0.000001   -0.000000   -0.000000   -0.000000   -0.000000
  |    56    0.000000    0.000000    0.000000    0.000000    0.000000
  |    57    0.000000    0.000000    0.000000    0.000000    0.000000
  |    58   -0.000001   -0.000000   -0.000000   -0.000000   -0.000000
  |    59    0.000000    0.000000    0.000000    0.000000    0.000000
  |    60    0.000000    0.000000    0.000000    0.000000    0.000000
  |    61   -0.000001   -0.000000   -0.000000   -0.000000   -0.000000
  |    62    0.000000    0.000000    0.000000    0.000000    0.000000
  |    63    0.000000    0.000000    0.000000    0.000000    0.000000
  |    64   -0.000001   -0.000000   -0.000000   -0.000000   -0.000000
  |    65    0.000000    0.000000    0.000000    0.000000    0.000000
  |    66    0.000000    0.000000    0.000000    0.000000    0.000000
  |    67   -0.000001   -0.000000   -0.000000   -0.000000   -0.000000
  |    68    0.000000    0.000000    0.000000    0.000000    0.000000
  |    69    0.000000    0.000000    0.000000    0.000000    0.000000
  |    70   -0.000001   -0.000000   -0.000000   -0.000000   -0.000000
  |    71    0.000000    0.000000    0.000000    0.000000    0.000000
  |    72    0.000000    0.000000    0.000000    0.000000    0.000000
  |    73   -0.000001   -0.000000   -0.000000   -0.000000   -0.000000
  |    74    0.000000    0.000000    0.000000    0.000000    0.000000
  |    75    0.000000    0.000000    0.000000    0.000000    0.000000
  |
  | Total   -0.000000
 
  Calculating angular momentum projected density of states ...
  | Chemical potential is  -4.820388 eV.
  | writing   projected DOS (shifted by the chemical potential) for species Se to file Se_l_proj_dos_tetrahedron.dat.
  | writing   projected DOS (raw data) for species Se to file Se_l_proj_dos_tetrahedron_raw.dat.
  | writing   projected DOS (shifted by the chemical potential) for species S to file S_l_proj_dos_tetrahedron.dat.
  | writing   projected DOS (raw data) for species S to file S_l_proj_dos_tetrahedron_raw.dat.
  | writing   projected DOS (shifted by the chemical potential) for species Mo to file Mo_l_proj_dos_tetrahedron.dat.
  | writing   projected DOS (raw data) for species Mo to file Mo_l_proj_dos_tetrahedron_raw.dat.
  | writing   projected DOS (shifted by the chemical potential) for species W to file W_l_proj_dos_tetrahedron.dat.
  | writing   projected DOS (raw data) for species W to file W_l_proj_dos_tetrahedron_raw.dat.

  Mulliken analysis                                       :  max(cpu_time)    wall_clock(cpu1)
  | Time for Mulliken analysis (scalar relativistic)      :          1.927               2.001
  | Time for Mulliken analysis (spin-orbit coupled)       :          4.553               4.562
  | Total time for Mulliken analysis                      :          6.480               6.563
------------------------------------------------------------

------------------------------------------------------------------------------
  Final output of selected total energy values:

  The following output summarizes some interesting total energy values
  at the end of a run (AFTER all relaxation, molecular dynamics, etc.).

  | Total energy of the DFT / Hartree-Fock s.c.f. calculation      :      -14644725.891489951 eV
  | Final zero-broadening corrected energy (caution - metals only) :      -14644725.891489951 eV
  | Total energy after non-SC SOC correction (DO NOT USE)          :      -14644769.317527447 eV
  | For reference only, the value of 1 Hartree used in FHI-aims is :             27.211384500 eV
  | For reference only, the overall average (free atom contribution
  | + realspace contribution) of the electrostatic potential after
  | s.c.f. convergence is                                          :             -1.323561547 eV

  Before relying on these values, please be sure to understand exactly which
  total energy value is referred to by a given number. Different objects may
  all carry the same name 'total energy'. Definitions:

  Total energy of the DFT / Hartree-Fock s.c.f. calculation:
  | Note that this energy does not include ANY quantities calculated after the
  | s.c.f. cycle, in particular not ANY RPA, MP2, etc. many-body perturbation terms.

  Final zero-broadening corrected energy:
  | For metallic systems only, a broadening of the occupation numbers at the Fermi
  | level can be extrapolated back to zero broadening by an electron-gas inspired
  | formula. For all systems that are not real metals, this value can be
  | meaningless and should be avoided.

------------------------------------------------------------------------------
  Methods described in the following list of references were used in this FHI-aims run.
  If you publish the results, please make sure to cite these reference if they apply.
  FHI-aims is an academic code, and for our developers (often, Ph.D. students
  and postdocs), scientific credit in the community is essential.
  Thank you for helping us!

  For any use of FHI-aims, please cite:

    Volker Blum, Ralf Gehrke, Felix Hanke, Paula Havu, Ville Havu,
    Xinguo Ren, Karsten Reuter, and Matthias Scheffler
    'Ab initio molecular simulations with numeric atom-centered orbitals'
    Computer Physics Communications 180, 2175-2196 (2009)
    http://doi.org/10.1016/j.cpc.2009.06.022


  For Hartree-Fock, hybrid functionals, or many-body perturbation theory used in your run, please cite:

    Xinguo Ren, Patrick Rinke, Volker Blum, Juergen Wieferink, Alex Tkatchenko,
    Andrea Sanfilippo, Karsten Reuter, and Matthias Scheffler,
    'Resolution-of-identity approach to Hartree-Fock, hybrid density functionals,
    RPA, MP2, and GW with numeric atom-centered orbital basis functions'
    New Journal of Physics 14, 053020 (2012).
    http://doi.org/10.1088/1367-2630/14/5/053020


  The provided symmetry information was generated with SPGlib:

    Atsushi Togo, Yusuke Seto, Dimitar Pashov
    SPGlib 1.7.3 obtained from http://spglib.sourceforge.net
    Copyright (C) 2008 Atsushi Togo


  For second-variational spin-orbit coupling used in your run, please cite:

    William P. Huhn and Volker Blum,
    'One-hundred-three compound band-structure benchmark of post-self-consistent'
    'spin-orbit coupling treatments in density functional theory'
    Phys. Rev. Materials 1, 033803 (2017).


  The ELSI infrastructure was used in your run to solve the Kohn-Sham electronic structure.
  Please check out http://elsi-interchange.org to learn more.
  If scalability is important for your project, please acknowledge ELSI by citing:

    V. W-z. Yu, F. Corsetti, A. Garcia, W. P. Huhn, M. Jacquelin, W. Jia,
    B. Lange, L. Lin, J. Lu, W. Mi, A. Seifitokaldani, A. Vazquez-Mayagoitia,
    C. Yang, H. Yang, and V. Blum
    'ELSI: A unified software interface for Kohn-Sham electronic structure solvers'
    Computer Physics Communications 222, 267-285 (2018).
    http://doi.org/10.1016/j.cpc.2017.09.007


  For the real-space grid partitioning and parallelization used in this calculation, please cite:

    Ville Havu, Volker Blum, Paula Havu, and Matthias Scheffler,
    'Efficient O(N) integration for all-electron electronic structure calculation'
    'using numerically tabulated basis functions'
    Journal of Computational Physics 228, 8367-8379 (2009).
    http://doi.org/10.1016/j.jcp.2009.08.008


  The high-level electronic structure method used in your calculation
  employed our efficient localized resolution of identity for the Coulomb operator.
  Some calculations, especially large-scale hybrid density functional theory,
  are only possible thanks to this development. For this feature, please cite:

    Arvid Ihrig, Juergen Wieferink, Igor Ying Zhang, Matti Ropo, Xinguo Ren,
    Patrick Rinke, Matthias Scheffler, and Volker Blum,
    'Accurate localized resolution of identity approach for linear-scaling
    hybrid density functionals and for many-body perturbation theory'
    New Journal of Physics 117, 093020 (2015).
    http://doi.org/10.1088/1367-2630/17/9/093020

  Of course, there are many other important community references, e.g., those cited in the
  above references. Our list is limited to references that describe implementations in the
  FHI-aims code. The reason is purely practical (length of this list) - please credit others as well.

------------------------------------------------------------
          Leaving FHI-aims.
          Date     :  20220929, Time     :  195834.867

          Computational steps:
          | Number of self-consistency cycles          :           24
          | Number of SCF (re)initializations          :            1

          Detailed time accounting                     :  max(cpu_time)    wall_clock(cpu1)
          | Total time                                  :     5897.549 s        5898.218 s
          | Preparation time                            :        1.536 s           1.578 s
          | Boundary condition initalization            :        0.984 s           0.985 s
          | Grid partitioning                           :        5.144 s           5.145 s
          | Preloading free-atom quantities on grid     :        2.102 s           2.104 s
          | Free-atom superposition energy              :        0.076 s           0.076 s
          | Total time for integrations                 :       58.779 s          58.781 s
          | Product basis setup: Total time             :      647.402 s         647.413 s
          | Total time evaluating exchange matrix       :     4666.713 s        4665.309 s
          | Total time for solution of K.-S. equations  :      263.355 s         263.329 s
          | Total time for density update               :      148.082 s         148.081 s
          | Total time for mixing                       :        0.269 s           0.270 s
          | Total time for Hartree multipole update     :        0.322 s           0.323 s
          | Total time for Hartree multipole sum        :       42.593 s          42.592 s
          | Total time for total energy evaluation      :        0.099 s           0.137 s
          | Total time for scaled ZORA corrections      :        0.000 s           0.000 s
          | Total time for vdW correction               :        9.982 s           9.983 s
          | Total time for perturbative SOC             :       44.129 s          44.129 s
          | Total time for Mulliken analysis            :        6.527 s           6.563 s

          Partial memory accounting:
          | Residual value for overall tracked memory usage across tasks:     0.000000 MB (should be 0.000000 MB)
          | Peak values for overall tracked memory usage:
          |   Minimum:      492.808 MB (on task  67 after allocating perturbation_matrix)
          |   Maximum:      854.119 MB (on task  14 after allocating perturbation_matrix)
          |   Average:      637.080 MB
          | Largest tracked array allocation:
          |   Minimum:      100.555 MB (ovlp3fn for atom on task  75)
          |   Maximum:      442.900 MB (ovlp3fn for atom on task 183)
          |   Average:      194.530 MB
          Note:  These values currently only include a subset of arrays which are explicitly tracked.
          The "true" memory usage will be greater.

          Have a nice day.
------------------------------------------------------------
