------------------------------------------------------------
          Invoking FHI-aims ...

          When using FHI-aims, please cite the following reference:

            Volker Blum, Ralf Gehrke, Felix Hanke, Paula Havu,
            Ville Havu, Xinguo Ren, Karsten Reuter, and Matthias Scheffler,
            'Ab Initio Molecular Simulations with Numeric Atom-Centered Orbitals',
            Computer Physics Communications 180, 2175-2196 (2009)

          In addition, many other developments in FHI-aims are likely important for
          your particular application. A partial list of references is given at the end of
          this file. Thank you for giving credit to the authors of these developments.

          For any questions about FHI-aims, please visit our slack channel at

            https://fhi-aims.slack.com

          and our main development and support site at

            https://aims-git.rz-berlin.mpg.de .

          The latter site, in particular, has a wiki to collect information, as well
          as an issue tracker to log discussions, suggest improvements, and report issues
          or bugs. https://aims-git.rz-berlin.mpg.de is also the main development site
          of the project and all new and updated code versions can be obtained there.
          Please send an email to aims-coordinators@fhi-berlin.mpg.de and we will add
          you to these sites. They are for you and everyone is welcome there.

------------------------------------------------------------



  Date     :  20220930, Time     :  144028.899
  Time zero on CPU 1             :   0.315308000000000E+00  s.
  Internal wall clock time zero  :           433780828.899  s.

  FHI-aims created a unique identifier for this run for later identification
  aims_uuid : 74279129-B775-4EE3-A0B9-19586286A170

  Build configuration of the current instance of FHI-aims
  -------------------------------------------------------
  FHI-aims version      : 220117
  Commit number         : 0c0e6afe2
  CMake host system     : Linux-5.3.18-24.99-default
  CMake version         : 3.22.0
  Fortran compiler      : /mpcdf/soft/SLE_15/packages/x86_64/intel_oneapi/2021.4/mpi/2021.4.0/bin/mpiifort (Intel) version 2021.4.0.20210910
  Fortran compiler flags: -O3 -ip -fp-model precise
  C compiler            : /mpcdf/soft/SLE_15/packages/x86_64/intel/2021.4.0/bin/icc (Intel) version 2021.4.0.20210910
  C compiler flags      : -O3 -ip -fp-model precise
  C++ compiler          : /mpcdf/soft/SLE_15/packages/x86_64/intel/2021.4.0/bin/icpc (Intel) version 2021.4.0.20210910
  C++ compiler flags    : -O3 -ip -fp-model precise
  Using MPI
  Using ScaLAPACK
  Using LibXC
  Using i-PI
  Using RLSY
  Linking against: /mpcdf/soft/SLE_15/packages/x86_64/intel_oneapi/2021.4/mkl/latest/lib/intel64/libmkl_intel_lp64.so
                   /mpcdf/soft/SLE_15/packages/x86_64/intel_oneapi/2021.4/mkl/latest/lib/intel64/libmkl_sequential.so
                   /mpcdf/soft/SLE_15/packages/x86_64/intel_oneapi/2021.4/mkl/latest/lib/intel64/libmkl_core.so
                   /mpcdf/soft/SLE_15/packages/x86_64/intel_oneapi/2021.4/mkl/latest/lib/intel64/libmkl_blacs_intelmpi_lp64.so
                   /mpcdf/soft/SLE_15/packages/x86_64/intel_oneapi/2021.4/mkl/latest/lib/intel64/libmkl_scalapack_lp64.so

  Using      288 parallel tasks.
  Task        0 on host ravl1031 reporting.
  Task        1 on host ravl1031 reporting.
  Task        2 on host ravl1031 reporting.
  Task        3 on host ravl1031 reporting.
  Task        4 on host ravl1031 reporting.
  Task        5 on host ravl1031 reporting.
  Task        6 on host ravl1031 reporting.
  Task        7 on host ravl1031 reporting.
  Task        8 on host ravl1031 reporting.
  Task        9 on host ravl1031 reporting.
  Task       10 on host ravl1031 reporting.
  Task       11 on host ravl1031 reporting.
  Task       12 on host ravl1031 reporting.
  Task       13 on host ravl1031 reporting.
  Task       14 on host ravl1031 reporting.
  Task       15 on host ravl1031 reporting.
  Task       16 on host ravl1031 reporting.
  Task       17 on host ravl1031 reporting.
  Task       18 on host ravl1031 reporting.
  Task       19 on host ravl1031 reporting.
  Task       20 on host ravl1031 reporting.
  Task       21 on host ravl1031 reporting.
  Task       22 on host ravl1031 reporting.
  Task       23 on host ravl1031 reporting.
  Task       24 on host ravl1031 reporting.
  Task       25 on host ravl1031 reporting.
  Task       26 on host ravl1031 reporting.
  Task       27 on host ravl1031 reporting.
  Task       28 on host ravl1031 reporting.
  Task       29 on host ravl1031 reporting.
  Task       30 on host ravl1031 reporting.
  Task       31 on host ravl1031 reporting.
  Task       32 on host ravl1031 reporting.
  Task       33 on host ravl1031 reporting.
  Task       34 on host ravl1031 reporting.
  Task       35 on host ravl1031 reporting.
  Task       36 on host ravl1031 reporting.
  Task       37 on host ravl1031 reporting.
  Task       38 on host ravl1031 reporting.
  Task       39 on host ravl1031 reporting.
  Task       40 on host ravl1031 reporting.
  Task       41 on host ravl1031 reporting.
  Task       42 on host ravl1031 reporting.
  Task       43 on host ravl1031 reporting.
  Task       44 on host ravl1031 reporting.
  Task       45 on host ravl1031 reporting.
  Task       46 on host ravl1031 reporting.
  Task       47 on host ravl1031 reporting.
  Task       48 on host ravl1031 reporting.
  Task       49 on host ravl1031 reporting.
  Task       50 on host ravl1031 reporting.
  Task       51 on host ravl1031 reporting.
  Task       52 on host ravl1031 reporting.
  Task       53 on host ravl1031 reporting.
  Task       54 on host ravl1031 reporting.
  Task       55 on host ravl1031 reporting.
  Task       56 on host ravl1031 reporting.
  Task       57 on host ravl1031 reporting.
  Task       58 on host ravl1031 reporting.
  Task       59 on host ravl1031 reporting.
  Task       60 on host ravl1031 reporting.
  Task       61 on host ravl1031 reporting.
  Task       62 on host ravl1031 reporting.
  Task       63 on host ravl1031 reporting.
  Task       64 on host ravl1031 reporting.
  Task       65 on host ravl1031 reporting.
  Task       66 on host ravl1031 reporting.
  Task       67 on host ravl1031 reporting.
  Task       68 on host ravl1031 reporting.
  Task       69 on host ravl1031 reporting.
  Task       70 on host ravl1031 reporting.
  Task       71 on host ravl1031 reporting.
  Task       72 on host ravl1032 reporting.
  Task       73 on host ravl1032 reporting.
  Task       74 on host ravl1032 reporting.
  Task       75 on host ravl1032 reporting.
  Task       76 on host ravl1032 reporting.
  Task       77 on host ravl1032 reporting.
  Task       78 on host ravl1032 reporting.
  Task       79 on host ravl1032 reporting.
  Task       80 on host ravl1032 reporting.
  Task       81 on host ravl1032 reporting.
  Task       82 on host ravl1032 reporting.
  Task       83 on host ravl1032 reporting.
  Task       84 on host ravl1032 reporting.
  Task       85 on host ravl1032 reporting.
  Task       86 on host ravl1032 reporting.
  Task       87 on host ravl1032 reporting.
  Task       88 on host ravl1032 reporting.
  Task       89 on host ravl1032 reporting.
  Task       90 on host ravl1032 reporting.
  Task       91 on host ravl1032 reporting.
  Task       92 on host ravl1032 reporting.
  Task       93 on host ravl1032 reporting.
  Task       94 on host ravl1032 reporting.
  Task       95 on host ravl1032 reporting.
  Task       96 on host ravl1032 reporting.
  Task       97 on host ravl1032 reporting.
  Task       98 on host ravl1032 reporting.
  Task       99 on host ravl1032 reporting.
  Task      100 on host ravl1032 reporting.
  Task      101 on host ravl1032 reporting.
  Task      102 on host ravl1032 reporting.
  Task      103 on host ravl1032 reporting.
  Task      104 on host ravl1032 reporting.
  Task      105 on host ravl1032 reporting.
  Task      106 on host ravl1032 reporting.
  Task      107 on host ravl1032 reporting.
  Task      108 on host ravl1032 reporting.
  Task      109 on host ravl1032 reporting.
  Task      110 on host ravl1032 reporting.
  Task      111 on host ravl1032 reporting.
  Task      112 on host ravl1032 reporting.
  Task      113 on host ravl1032 reporting.
  Task      114 on host ravl1032 reporting.
  Task      115 on host ravl1032 reporting.
  Task      116 on host ravl1032 reporting.
  Task      117 on host ravl1032 reporting.
  Task      118 on host ravl1032 reporting.
  Task      119 on host ravl1032 reporting.
  Task      120 on host ravl1032 reporting.
  Task      121 on host ravl1032 reporting.
  Task      122 on host ravl1032 reporting.
  Task      123 on host ravl1032 reporting.
  Task      124 on host ravl1032 reporting.
  Task      125 on host ravl1032 reporting.
  Task      126 on host ravl1032 reporting.
  Task      127 on host ravl1032 reporting.
  Task      128 on host ravl1032 reporting.
  Task      129 on host ravl1032 reporting.
  Task      130 on host ravl1032 reporting.
  Task      131 on host ravl1032 reporting.
  Task      132 on host ravl1032 reporting.
  Task      133 on host ravl1032 reporting.
  Task      134 on host ravl1032 reporting.
  Task      135 on host ravl1032 reporting.
  Task      136 on host ravl1032 reporting.
  Task      137 on host ravl1032 reporting.
  Task      138 on host ravl1032 reporting.
  Task      139 on host ravl1032 reporting.
  Task      140 on host ravl1032 reporting.
  Task      141 on host ravl1032 reporting.
  Task      142 on host ravl1032 reporting.
  Task      143 on host ravl1032 reporting.
  Task      144 on host ravl1033 reporting.
  Task      145 on host ravl1033 reporting.
  Task      146 on host ravl1033 reporting.
  Task      147 on host ravl1033 reporting.
  Task      148 on host ravl1033 reporting.
  Task      149 on host ravl1033 reporting.
  Task      150 on host ravl1033 reporting.
  Task      151 on host ravl1033 reporting.
  Task      152 on host ravl1033 reporting.
  Task      153 on host ravl1033 reporting.
  Task      154 on host ravl1033 reporting.
  Task      155 on host ravl1033 reporting.
  Task      156 on host ravl1033 reporting.
  Task      157 on host ravl1033 reporting.
  Task      158 on host ravl1033 reporting.
  Task      159 on host ravl1033 reporting.
  Task      160 on host ravl1033 reporting.
  Task      161 on host ravl1033 reporting.
  Task      162 on host ravl1033 reporting.
  Task      163 on host ravl1033 reporting.
  Task      164 on host ravl1033 reporting.
  Task      165 on host ravl1033 reporting.
  Task      166 on host ravl1033 reporting.
  Task      167 on host ravl1033 reporting.
  Task      168 on host ravl1033 reporting.
  Task      169 on host ravl1033 reporting.
  Task      170 on host ravl1033 reporting.
  Task      171 on host ravl1033 reporting.
  Task      172 on host ravl1033 reporting.
  Task      173 on host ravl1033 reporting.
  Task      174 on host ravl1033 reporting.
  Task      175 on host ravl1033 reporting.
  Task      176 on host ravl1033 reporting.
  Task      177 on host ravl1033 reporting.
  Task      178 on host ravl1033 reporting.
  Task      179 on host ravl1033 reporting.
  Task      180 on host ravl1033 reporting.
  Task      181 on host ravl1033 reporting.
  Task      182 on host ravl1033 reporting.
  Task      183 on host ravl1033 reporting.
  Task      184 on host ravl1033 reporting.
  Task      185 on host ravl1033 reporting.
  Task      186 on host ravl1033 reporting.
  Task      187 on host ravl1033 reporting.
  Task      188 on host ravl1033 reporting.
  Task      189 on host ravl1033 reporting.
  Task      190 on host ravl1033 reporting.
  Task      191 on host ravl1033 reporting.
  Task      192 on host ravl1033 reporting.
  Task      193 on host ravl1033 reporting.
  Task      194 on host ravl1033 reporting.
  Task      195 on host ravl1033 reporting.
  Task      196 on host ravl1033 reporting.
  Task      197 on host ravl1033 reporting.
  Task      198 on host ravl1033 reporting.
  Task      199 on host ravl1033 reporting.
  Task      200 on host ravl1033 reporting.
  Task      201 on host ravl1033 reporting.
  Task      202 on host ravl1033 reporting.
  Task      203 on host ravl1033 reporting.
  Task      204 on host ravl1033 reporting.
  Task      205 on host ravl1033 reporting.
  Task      206 on host ravl1033 reporting.
  Task      207 on host ravl1033 reporting.
  Task      208 on host ravl1033 reporting.
  Task      209 on host ravl1033 reporting.
  Task      210 on host ravl1033 reporting.
  Task      211 on host ravl1033 reporting.
  Task      212 on host ravl1033 reporting.
  Task      213 on host ravl1033 reporting.
  Task      214 on host ravl1033 reporting.
  Task      215 on host ravl1033 reporting.
  Task      216 on host ravl1034 reporting.
  Task      217 on host ravl1034 reporting.
  Task      218 on host ravl1034 reporting.
  Task      219 on host ravl1034 reporting.
  Task      220 on host ravl1034 reporting.
  Task      221 on host ravl1034 reporting.
  Task      222 on host ravl1034 reporting.
  Task      223 on host ravl1034 reporting.
  Task      224 on host ravl1034 reporting.
  Task      225 on host ravl1034 reporting.
  Task      226 on host ravl1034 reporting.
  Task      227 on host ravl1034 reporting.
  Task      228 on host ravl1034 reporting.
  Task      229 on host ravl1034 reporting.
  Task      230 on host ravl1034 reporting.
  Task      231 on host ravl1034 reporting.
  Task      232 on host ravl1034 reporting.
  Task      233 on host ravl1034 reporting.
  Task      234 on host ravl1034 reporting.
  Task      235 on host ravl1034 reporting.
  Task      236 on host ravl1034 reporting.
  Task      237 on host ravl1034 reporting.
  Task      238 on host ravl1034 reporting.
  Task      239 on host ravl1034 reporting.
  Task      240 on host ravl1034 reporting.
  Task      241 on host ravl1034 reporting.
  Task      242 on host ravl1034 reporting.
  Task      243 on host ravl1034 reporting.
  Task      244 on host ravl1034 reporting.
  Task      245 on host ravl1034 reporting.
  Task      246 on host ravl1034 reporting.
  Task      247 on host ravl1034 reporting.
  Task      248 on host ravl1034 reporting.
  Task      249 on host ravl1034 reporting.
  Task      250 on host ravl1034 reporting.
  Task      251 on host ravl1034 reporting.
  Task      252 on host ravl1034 reporting.
  Task      253 on host ravl1034 reporting.
  Task      254 on host ravl1034 reporting.
  Task      255 on host ravl1034 reporting.
  Task      256 on host ravl1034 reporting.
  Task      257 on host ravl1034 reporting.
  Task      258 on host ravl1034 reporting.
  Task      259 on host ravl1034 reporting.
  Task      260 on host ravl1034 reporting.
  Task      261 on host ravl1034 reporting.
  Task      262 on host ravl1034 reporting.
  Task      263 on host ravl1034 reporting.
  Task      264 on host ravl1034 reporting.
  Task      265 on host ravl1034 reporting.
  Task      266 on host ravl1034 reporting.
  Task      267 on host ravl1034 reporting.
  Task      268 on host ravl1034 reporting.
  Task      269 on host ravl1034 reporting.
  Task      270 on host ravl1034 reporting.
  Task      271 on host ravl1034 reporting.
  Task      272 on host ravl1034 reporting.
  Task      273 on host ravl1034 reporting.
  Task      274 on host ravl1034 reporting.
  Task      275 on host ravl1034 reporting.
  Task      276 on host ravl1034 reporting.
  Task      277 on host ravl1034 reporting.
  Task      278 on host ravl1034 reporting.
  Task      279 on host ravl1034 reporting.
  Task      280 on host ravl1034 reporting.
  Task      281 on host ravl1034 reporting.
  Task      282 on host ravl1034 reporting.
  Task      283 on host ravl1034 reporting.
  Task      284 on host ravl1034 reporting.
  Task      285 on host ravl1034 reporting.
  Task      286 on host ravl1034 reporting.
  Task      287 on host ravl1034 reporting.

  Performing system and environment tests:
  | Environment variable OMP_NUM_THREADS correctly set to 1.
  | Checking for ScaLAPACK...
  | Testing pdtran()...
  | All pdtran() tests passed.

  Obtaining array dimensions for all initial allocations:
  
  -----------------------------------------------------------------------
  Parsing control.in (first pass over file, find array dimensions only).
  The contents of control.in will be repeated verbatim below
  unless switched off by setting 'verbatim_writeout .false.' .
  in the first line of control.in .
  -----------------------------------------------------------------------
  
  xc                 hse06  0.11
  hse_unit b
  spin               collinear
  default_initial_moment 1
  charge      0.0
  relativistic       atomic_zora scalar
  #elsi_restart read
  # SCF settings
  #relax_geometry bfgs 1E-3
  #relax_unit_cell fixed_angles
  use_symmetric_forces .true.
  occupation_type gaussian       0.1
  # k-grid settings  (to be adjusted)
  k_grid  4 4 1
  #empty_states 8
  use_dipole_correction
  include_spin_orbit non_self_consistent
  # sc_accuracy_rho    1E-4
  #    sc_accuracy_eev    1E-3
  #    sc_accuracy_etot   1E-4
  #    sc_accuracy_forces 1E-2
  output dos_tetrahedron -10 0 2001 0.1
  output species_proj_dos_tetrahedron -10 0 2001 0.1
  
  many_body_dispersion_nl    beta=0.83
  ################################################################################
  #
  #  FHI-aims code project
  #  Volker Blum, 2018
  #
  #  Suggested "intermediate" defaults for Se atom (to be pasted into control.in file)
  #
  #  2020/09/15 These "intermediate" settings are identical to past "tight" defaults
  #             and differ only in the "g" function that is now included in "tight".
  #
  ################################################################################
    species        Se
  #     global species definitions
      nucleus             34
      mass                78.96
  #
      l_hartree           6
  #
      cut_pot             4.0          2.0  1.0
      basis_dep_cutoff    1e-4
  #
      radial_base         55 7.0
      radial_multiplier   2
      angular_grids       specified
        division   0.0830  110
        division   0.1357  194
        division   0.7377  302
        division   0.8610  434
  #      division   0.9640  590
  #      division   1.0773  770
  #      division   2.5539  974
  #      outer_grid  974
        outer_grid  434
  ################################################################################
  #
  #  Definition of "minimal" basis
  #
  ################################################################################
  #     valence basis states
      valence      4  s   2.
      valence      4  p   4.
      valence      3  d  10.
  #     ion occupancy
      ion_occ      4  s   1.
      ion_occ      4  p   3.
      ion_occ      3  d  10.
  ################################################################################
  #
  #  Suggested additional basis functions. For production calculations,
  #  uncomment them one after another (the most important basis functions are
  #  listed first).
  #
  #  Constructed for dimers: 1.85 A, 2.15 A, 2.50 A, 3.00 A, 4.00 A
  #
  ################################################################################
  #  "First tier" - improvements: -336.21 meV to -36.85 meV
       hydro 3 d 4.3
       hydro 2 p 1.6
       hydro 4 f 7.2
       ionic 4 s auto
  #  "Second tier" - improvements: -14.39 meV to -1.49 meV
  #     hydro 5 g 10.4
  #     hydro 4 p 4.5
  #     hydro 4 d 6.2
  #     hydro 4 f 11.2
  #     hydro 1 s 0.65
  #     hydro 6 h 15.2
  #  "Third tier" - improvements: -0.46 meV and below
  #     hydro 5 g 14.4
  #     ionic 4 d auto
  #     hydro 4 f 22.4
  #     hydro 5 f 7.4
  #     hydro 5 p 8
  #     hydro 5 s 9.4
  #  "Fourth tier" - improvements: -0.12 meV and below
  #     hydro 5 d 11.6
  #     hydro 6 h 18
  #     hydro 4 p 4
  #     hydro 5 f 16
  #     hydro 4 s 3.9
  
  
  ################################################################################
  #
  #  FHI-aims code project
  #  Volker Blum, 2018
  #
  #  Suggested "intermediate" defaults for S atom (to be pasted into control.in file)
  #
  ################################################################################
    species        S
  #     global species definitions
      nucleus             16
      mass                32.065
  #
      l_hartree           6
  #
      cut_pot             4.0          2.0  1.0
      basis_dep_cutoff    1e-4
  #
      radial_base         44 7.0
      radial_multiplier   2
      angular_grids       specified
        division   0.4665  110
        division   0.5810  194
        division   0.7139  302
        division   0.8274  434
  #      division   0.9105  590
  #      division   1.0975  770
  #      division   1.2028  974
  #      outer_grid  974
        outer_grid  434
  ################################################################################
  #
  #  Definition of "minimal" basis
  #
  ################################################################################
  #     valence basis states
      valence      3  s   2.
      valence      3  p   4.
  #     ion occupancy
      ion_occ      3  s   1.
      ion_occ      3  p   3.
  ################################################################################
  #
  #  Suggested additional basis functions. For production calculations,
  #  uncomment them one after another (the most important basis functions are
  #  listed first).
  #
  #  Constructed for dimers: 1.6 A, 1.9 A, 2.5 A, 3.25 A, 4.0 A
  #
  ################################################################################
  #  "First tier" - improvements: -652.81 meV to -45.53 meV
       ionic 3 d auto
       hydro 2 p 1.8
       hydro 4 f 7
       ionic 3 s auto
  #  "Second tier" - improvements: -30.20 meV to -1.74 meV
  #     hydro 4 d 6.2
  for_aux     hydro 5 g 10.8
  #     hydro 4 p 4.9
  #     hydro 5 f 10
  #     hydro 1 s 0.8
  #  "Third tier" - improvements: -1.04 meV to -0.20 meV
  #     hydro 3 d 3.9
  #     hydro 3 d 2.7
  #     hydro 5 g 12
  #     hydro 4 p 10.4
  #     hydro 5 f 12.4
  #     hydro 2 s 1.9
  #  "Fourth tier" - improvements: -0.35 meV to -0.06 meV
  #     hydro 4 d 10.4
  #     hydro 4 p 7.2
  #     hydro 4 d 10
  #     hydro 5 g 19.2
  #     hydro 4 s 12
  
  ################################################################################
  #
  #  FHI-aims code project
  # Volker Blum, Fritz Haber Institute Berlin, 2009
  #
  #  Suggested "intermediate" defaults for Mo atom (to be pasted into control.in file)
  #
  #  See https://aaltodoc.aalto.fi/handle/123456789/33620 for the report these
  #  setting are based on
  ################################################################################
    species        Mo
  #     global species definitions
      nucleus             42
      mass                95.94
  #
      l_hartree           6
  #
      cut_pot             4.0  2.0  1.0
      basis_dep_cutoff    1e-4
  #
      radial_base         59 7.0
      radial_multiplier   2
      angular_grids specified
        division   0.3117   50
        division   0.6750  110
        division   1.0351  194
        division   1.2073  302
        division   1.6402  434
  #      division   1.9185  590
  #      division   2.0237  770
  #      division   2.0980  974
  #      division   2.7972 1202
  #      outer_grid  974
        outer_grid  434
  ################################################################################
  #
  #  Definition of "minimal" basis
  #
  ################################################################################
  #     valence basis states
      valence      5  s   1.
      valence      4  p   6.
      valence      4  d   5.
  #     ion occupancy
      ion_occ     5  s   0.
      ion_occ     4  p   6.
      ion_occ     4  d   4.
  ################################################################################
  #
  #  Suggested additional basis functions. For production calculations,
  #  uncomment them one after another (the most important basis functions are
  #  listed first).
  #
  #  Constructed for dimers: 1.675 A, 1.9 A, 2.375 A, 3.00 A, 4.00 A
  #
  ################################################################################
  #  "First tier"  - max. impr. -711.23  meV, min. impr. -21.07 meV
       hydro 4 f 8.4
       hydro 3 d 2.8
       ionic 5 p auto
       for_aux hydro 5 g 12
       ionic 5 s auto
  #  "Second tier" - max. impr. -39.38  meV, min. impr. -2.68 meV
  #     hydro 4 f 12.4
  #     hydro 3 d 3.3
  #     hydro 6 h 17.2
  #     hydro 4 f 7.6
  #     hydro 3 p 3.0
  #     hydro 1 s 0.65
  #  "Third tier"  - max. impr. -5.50 meV, min. impr. -0.47 meV
  #     hydro 4 f 29.2
  #     hydro 5 g 11.2
  #     hydro 3 d 6.8
  #     hydro 6 h 14.8
  #     hydro 2 p 2.3
  #     hydro 4 s 3.8
  #  "Fourth tier"  - max. impr. -0.58 meV, min. impr. -0.19 meV
  #     hydro 5 f 6.8
  #     hydro 5 d 14.8
  #     hydro 6 s 7.8
  #     hydro 5 g 20.8
  #     hydro 5 d 10.4
  #     hydro 5 p 9.8
  #  Further functions - -0.17 meV and below
  #     hydro 5 d 3.2
  ################################################################################
  #
  #  FHI-aims code project
  #  Volker Blum, Maria Dragoumi, Sebastian Kokott 2020
  #
  #  Suggested "intermediate" defaults for W atom (to be pasted into control.in file)
  #
  ################################################################################
    species          W
  #     global species definitions
      nucleus        74
      mass           183.84
  #
      l_hartree      6
  #
      cut_pot        4.0  2.0  1.0
      basis_dep_cutoff    1e-4
  #
      radial_base    71  7.0
      radial_multiplier  2
      angular_grids specified
        division   0.2901   50
        division   0.6986  110
        division   1.0528  194
        division   1.2659  302
        division   1.5223  434
  #      division   1.8111  590
  #      division   2.0105  770
  #      division   2.0413  974
  #      division   2.8804 1202
  #      outer_grid  974
        outer_grid  434
  ################################################################################
  #
  #  Definition of "minimal" basis
  #
  ################################################################################
  #     valence basis states
      valence      6  s   2.
      valence      5  p   6.
      valence      5  d   4.
      valence      4  f  14.
  #     ion occupancy
      ion_occ      6  s   1.
      ion_occ      5  p   6.
      ion_occ      5  d   3.
      ion_occ      4  f  14.
  ################################################################################
  #
  #  Suggested additional basis functions. For production calculations,
  #  uncomment them one after another (the most important basis functions are
  #  listed first).
  #
  #  Constructed for dimers: 1.775, 1.99, 2.50, 3.25, 4.50 AA
  #
  ################################################################################
  #
  #  "First tier" - improvements: -603.77 meV to -28.99 meV
       hydro 4 f 7.8
       hydro 4 d 5.8
       ionic 6 p auto
    for_aux   hydro 5 g 12.4
       ionic 6 s auto
  #  "Second tier" - improvements: -28.30 meV to -1.31 meV
  #     hydro 6 h 16.8
  #     ionic 5 d auto
  #     hydro 4 f 8.6
  #     hydro 5 g 16.8
  #     hydro 5 d 8.4
  #     hydro 3 p 3.3
  #     hydro 1 s 0.55
  #  "Third tier" - max. impr. -1.79 meV, min. impr. -0.26 meV
  #     hydro 5 f 10.8
  #     hydro 5 g 34.4
  #     hydro 6 h 20.8
  #     hydro 5 g 12.8
  #     hydro 2 p 1.6
  #     hydro 4 s 4.7
  #     hydro 6 d 18.4
  #  "Fourth tier" -0.46 max. impr. - meV, min. impr. -0.09 meV
  #     hydro 6 h 21.6
  #     hydro 5 f 22.4
  #     hydro 4 f 4
  #     hydro 5 p 9.6
  #     hydro 6 d 17.2
  #     hydro 3 p 5.2
  #     hydro 5 g 4.7
  #     hydro 6 s 7.6
  
  -----------------------------------------------------------------------
  Completed first pass over input file control.in .
  -----------------------------------------------------------------------
  
  
  -----------------------------------------------------------------------
  Parsing geometry.in (first pass over file, find array dimensions only).
  The contents of geometry.in will be repeated verbatim below
  unless switched off by setting 'verbatim_writeout .false.' .
  in the first line of geometry.in .
  -----------------------------------------------------------------------
  
  #
  # This is the geometry file that corresponds to the current relaxation step.
  # If you do not want this file to be written, set the "write_restart_geometry" flag to .false.
  #  aims_uuid : 4E655CFC-03E0-479F-A7E1-ED32C606B616
  #
    set_vacuum_level       103.288256
  lattice_vector     16.31232095      0.00000000      0.00000000
  lattice_vector     -8.15665875     14.12581815      0.00000000
  lattice_vector      0.00000000      0.00000000    103.32585319
  atom      -0.00002610      0.94075451     51.62766912 Mo
  atom       1.63121908      1.88247426     53.29006360 Se
  atom       1.63117769      1.88242366     49.96519791 Se
  atom      -1.63136426      3.76591600     51.62763888 Mo
  atom      -0.00011100      4.70761048     53.29004247 Se
  atom      -0.00015686      4.70763112     49.96518897 Se
  atom      -3.26268531      6.59109018     51.62767858 Mo
  atom      -1.63144706      7.53276189     53.29008574 Se
  atom      -1.63148826      7.53279595     49.96522024 Se
  atom      -4.89401686      9.41624866     51.62771665 Mo
  atom      -3.26277260     10.35794893     53.29012275 Se
  atom      -3.26281619     10.35792719     49.96525304 Se
  atom      -6.52536470     12.24138857     51.62771773 Mo
  atom      -4.89411332     13.18313800     53.29008915 Se
  atom      -4.89415942     13.18308251     49.96524677 Se
  atom       3.26244831      0.94075208     51.62762157 Mo
  atom       4.89363020      1.88245670     53.29003757 Se
  atom       4.89367560      1.88245489     49.96519940 Se
  atom       1.63111309      3.76591332     51.62759366 Mo
  atom       3.26229563      4.70757451     53.29001923 Se
  atom       3.26234084      4.70765045     49.96518656 Se
  atom      -0.00023172      6.59108103     51.62762875 Mo
  atom       1.63097296      7.53272916     53.29005454 Se
  atom       1.63101524      7.53281729     49.96522684 Se
  atom      -1.63156158      9.41624145     51.62765615 Mo
  atom      -0.00036482     10.35791858     53.29010488 Se
  atom      -0.00031963     10.35794868     49.96525358 Se
  atom      -3.26289272     12.24140628     51.62767094 Mo
  atom      -1.63169012     13.18310735     53.29006971 Se
  atom      -1.63164325     13.18309653     49.96524255 Se
  atom       6.52488671      0.94075413     51.62764920 Mo
  atom       8.15608654      1.88244174     53.29007819 Se
  atom       8.15616003      1.88245757     49.96524972 Se
  atom       4.89356014      3.76592081     51.62762637 Mo
  atom       6.52476570      4.70757352     53.29006453 Se
  atom       6.52483645      4.70766249     49.96523680 Se
  atom       3.26224172      6.59107836     51.62766130 Mo
  atom       4.89342462      7.53273091     53.29010902 Se
  atom       4.89349899      7.53283580     49.96526904 Se
  atom       1.63090559      9.41624820     51.62769449 Mo
  atom       3.26209650     10.35791873     53.29014078 Se
  atom       3.26216852     10.35796380     49.96530573 Se
  atom      -0.00042396     12.24138076     51.62769597 Mo
  atom       1.63075959     13.18310698     53.29011684 Se
  atom       1.63083067     13.18311031     49.96528651 Se
  atom       9.78738639      0.94077187     51.62770053 Mo
  atom      11.41859225      1.88247348     53.29014056 Se
  atom      11.41859923      1.88244896     49.96526095 Se
  atom       8.15605301      3.76591938     51.62766359 Mo
  atom       9.78725503      4.70759749     53.29012081 Se
  atom       9.78726509      4.70764789     49.96525363 Se
  atom       6.52470960      6.59108671     51.62770785 Mo
  atom       8.15592894      7.53275266     53.29015604 Se
  atom       8.15593574      7.53281656     49.96529356 Se
  atom       4.89338685      9.41624290     51.62774949 Mo
  atom       6.52458708     10.35793014     53.29020036 Se
  atom       6.52460030     10.35794607     49.96531342 Se
  atom       3.26204294     12.24141201     51.62775460 Mo
  atom       4.89326909     13.18312470     53.29016288 Se
  atom       4.89327895     13.18309744     49.96531441 Se
  atom      13.04981865      0.94075288     51.62771552 Mo
  atom      14.68106217      1.88245899     53.29009435 Se
  atom      14.68103269      1.88242620     49.96525333 Se
  atom      11.41849599      3.76590992     51.62768610 Mo
  atom      13.04972505      4.70759876     53.29008197 Se
  atom      13.04970276      4.70762788     49.96523582 Se
  atom       9.78716292      6.59107593     51.62771718 Mo
  atom      11.41839254      7.53275822     53.29012603 Se
  atom      11.41836705      7.53279765     49.96527021 Se
  atom       8.15582401      9.41625245     51.62776467 Mo
  atom       9.78706778     10.35792424     53.29016116 Se
  atom       9.78703857     10.35792553     49.96530038 Se
  atom       6.52451322     12.24138681     51.62776926 Mo
  atom       8.15573328     13.18314034     53.29013301 Se
  atom       8.15570624     13.18309340     49.96529812 Se
  #
  # What follows is the current estimated Hessian matrix constructed by the BFGS algorithm.
  # This is NOT the true Hessian matrix of the system.
  # If you do not want this information here, switch it off using the "hessian_to_restart_geometry" keyword.
  #
  
  -----------------------------------------------------------------------
  Completed first pass over input file geometry.in .
  -----------------------------------------------------------------------
  

  Basic array size parameters:
  | Number of species                 :        4
  | Number of atoms                   :       75
  | Number of lattice vectors         :        3
  | Max. basis fn. angular momentum   :        4
  | Max. atomic/ionic basis occupied n:        6
  | Max. number of basis fn. types    :        3
  | Max. radial fns per species/type  :       14
  | Max. logarithmic grid size        :     1483
  | Max. radial integration grid size :      143
  | Max. angular integration grid size:      434
  | Max. angular grid division number :        8
  | Radial grid for Hartree potential :     1483
  | Number of spin channels           :        2

------------------------------------------------------------
          Reading file control.in.
------------------------------------------------------------

  XC: Using HSE-functional with OMEGA =  0.110000E+00 <units>.
  XC: For the actual units (bohr^-1 or Angstrom^-1), see below.
  hse_unit: Unit for the HSE06 hybrid functional screening parameter set to bohr^(-1).
  Spin treatment: Spin density functional theory - collinear spins.
  Initial spin moment per atom:   1.0000
  Charge =   0.000000E+00: Neutral system requested explicitly.
  Scalar relativistic treatment of kinetic energy: on-site free-atom approximation to ZORA.
  Occupation type: Gaussian broadening, width =   0.100000E+00 eV.
  Found k-point grid:         4         4         1
  Using dipole correction.
  Calculating non-self-consistent second-variational spin-orbit coupling after scf-cycle
  You have request a SOC run with spin-polarization.
  symmetry_reduced_k_grid will be turned off.
  Calculating density of states with
  | energy interval :-10.000000  0.000000
  | points & tetrahedron method :  2001
  Calculating angular-momentum projected DOS with 
  | energy interval :-10.000000  0.000000
  | points & tetrahedron :  2001
  Using libMBD for calculating MBD and TS energies
 
  Reading configuration options for species Se                  .
  | Found nuclear charge :  34.0000
  | Found atomic mass :    78.9600000000000      amu
  | Found l_max for Hartree potential  :   6
  | Found cutoff potl. onset [A], width [A], scale factor :    4.00000    2.00000    1.00000
  | Threshold for basis-dependent cutoff potential is   0.100000E-03
  | Found data for basic radial integration grid :    55 points, outermost radius =    7.000 A
  | Found multiplier for basic radial grid :   2
  | Found angular grid specification: user-specified.
  | Specified grid contains     5 separate shells.
  | Check grid settings after all constraints further below.
  | Found free-atom valence shell :  4 s   2.000
  | Found free-atom valence shell :  4 p   4.000
  | Found free-atom valence shell :  3 d  10.000
  | Found free-ion valence shell :  4 s   1.000
  | Found free-ion valence shell :  4 p   3.000
  | Found free-ion valence shell :  3 d  10.000
  | Found hydrogenic basis function :  3 d   4.300
  | Found hydrogenic basis function :  2 p   1.600
  | Found hydrogenic basis function :  4 f   7.200
  | Found ionic basis function :  4 s , default cutoff radius.
  Species Se                  : Missing cutoff potential type.
  Defaulting to exp(1/x)/(1-x)^2 type cutoff potential.
  Species Se: No 'logarithmic' tag. Using default grid for free atom:
  | Default logarithmic grid data [bohr] : 0.1000E-03 0.1000E+03 0.1012E+01
  | Will include ionic basis functions of  2.0-fold positive Se                   ion.
  Species Se: On-site basis accuracy parameter (for Gram-Schmidt orthonormalisation) not specified.
  Using default value basis_acc =  0.1000000E-03.
  Species Se                  : Using default innermost maximum threshold i_radial=  2 for radial functions.
  Species Se                  : Default cutoff onset for free atom density etc. : 0.40000000E+01 AA.
  Species Se                  : Basic radial grid will be enhanced according to radial_multiplier =   2, to contain   111 grid points.
 
  Reading configuration options for species S                   .
  | Found nuclear charge :  16.0000
  | Found atomic mass :    32.0650000000000      amu
  | Found l_max for Hartree potential  :   6
  | Found cutoff potl. onset [A], width [A], scale factor :    4.00000    2.00000    1.00000
  | Threshold for basis-dependent cutoff potential is   0.100000E-03
  | Found data for basic radial integration grid :    44 points, outermost radius =    7.000 A
  | Found multiplier for basic radial grid :   2
  | Found angular grid specification: user-specified.
  | Specified grid contains     5 separate shells.
  | Check grid settings after all constraints further below.
  | Found free-atom valence shell :  3 s   2.000
  | Found free-atom valence shell :  3 p   4.000
  | Found free-ion valence shell :  3 s   1.000
  | Found free-ion valence shell :  3 p   3.000
  | Found ionic basis function :  3 d , default cutoff radius.
  | Found hydrogenic basis function :  2 p   1.800
  | Found hydrogenic basis function :  4 f   7.000
  | Found ionic basis function :  3 s , default cutoff radius.
  | Found hydrogenic extended basis function :  5 g  10.800
  Species S                   : Missing cutoff potential type.
  Defaulting to exp(1/x)/(1-x)^2 type cutoff potential.
  Species S : No 'logarithmic' tag. Using default grid for free atom:
  | Default logarithmic grid data [bohr] : 0.1000E-03 0.1000E+03 0.1012E+01
  | Will include ionic basis functions of  2.0-fold positive S                    ion.
  Species S : On-site basis accuracy parameter (for Gram-Schmidt orthonormalisation) not specified.
  Using default value basis_acc =  0.1000000E-03.
  Species S                   : Using default innermost maximum threshold i_radial=  2 for radial functions.
  Species S                   : Default cutoff onset for free atom density etc. : 0.40000000E+01 AA.
  Species S                   : Basic radial grid will be enhanced according to radial_multiplier =   2, to contain    89 grid points.
 
  Reading configuration options for species Mo                  .
  | Found nuclear charge :  42.0000
  | Found atomic mass :    95.9400000000000      amu
  | Found l_max for Hartree potential  :   6
  | Found cutoff potl. onset [A], width [A], scale factor :    4.00000    2.00000    1.00000
  | Threshold for basis-dependent cutoff potential is   0.100000E-03
  | Found data for basic radial integration grid :    59 points, outermost radius =    7.000 A
  | Found multiplier for basic radial grid :   2
  | Found angular grid specification: user-specified.
  | Specified grid contains     6 separate shells.
  | Check grid settings after all constraints further below.
  | Found free-atom valence shell :  5 s   1.000
  | Found free-atom valence shell :  4 p   6.000
  | Found free-atom valence shell :  4 d   5.000
  | Found free-ion valence shell :  5 s   0.000
  | Found free-ion valence shell :  4 p   6.000
  | Found free-ion valence shell :  4 d   4.000
  | Found hydrogenic basis function :  4 f   8.400
  | Found hydrogenic basis function :  3 d   2.800
  | Found ionic basis function :  5 p , default cutoff radius.
  | Found hydrogenic extended basis function :  5 g  12.000
  | Found ionic basis function :  5 s , default cutoff radius.
  Species Mo                  : Missing cutoff potential type.
  Defaulting to exp(1/x)/(1-x)^2 type cutoff potential.
  Species Mo: No 'logarithmic' tag. Using default grid for free atom:
  | Default logarithmic grid data [bohr] : 0.1000E-03 0.1000E+03 0.1012E+01
  | Will include ionic basis functions of  2.0-fold positive Mo                   ion.
  Species Mo: On-site basis accuracy parameter (for Gram-Schmidt orthonormalisation) not specified.
  Using default value basis_acc =  0.1000000E-03.
  Species Mo                  : Using default innermost maximum threshold i_radial=  2 for radial functions.
  Species Mo                  : Default cutoff onset for free atom density etc. : 0.40000000E+01 AA.
  Species Mo                  : Basic radial grid will be enhanced according to radial_multiplier =   2, to contain   119 grid points.
 
  Reading configuration options for species W                   .
  | Found nuclear charge :  74.0000
  | Found atomic mass :    183.840000000000      amu
  | Found l_max for Hartree potential  :   6
  | Found cutoff potl. onset [A], width [A], scale factor :    4.00000    2.00000    1.00000
  | Threshold for basis-dependent cutoff potential is   0.100000E-03
  | Found data for basic radial integration grid :    71 points, outermost radius =    7.000 A
  | Found multiplier for basic radial grid :   2
  | Found angular grid specification: user-specified.
  | Specified grid contains     6 separate shells.
  | Check grid settings after all constraints further below.
  | Found free-atom valence shell :  6 s   2.000
  | Found free-atom valence shell :  5 p   6.000
  | Found free-atom valence shell :  5 d   4.000
  | Found free-atom valence shell :  4 f  14.000
  | Found free-ion valence shell :  6 s   1.000
  | Found free-ion valence shell :  5 p   6.000
  | Found free-ion valence shell :  5 d   3.000
  | Found free-ion valence shell :  4 f  14.000
  | Found hydrogenic basis function :  4 f   7.800
  | Found hydrogenic basis function :  4 d   5.800
  | Found ionic basis function :  6 p , default cutoff radius.
  | Found hydrogenic extended basis function :  5 g  12.400
  | Found ionic basis function :  6 s , default cutoff radius.
  Species W                   : Missing cutoff potential type.
  Defaulting to exp(1/x)/(1-x)^2 type cutoff potential.
  Species W : No 'logarithmic' tag. Using default grid for free atom:
  | Default logarithmic grid data [bohr] : 0.1000E-03 0.1000E+03 0.1012E+01
  | Will include ionic basis functions of  2.0-fold positive W                    ion.
  Species W : On-site basis accuracy parameter (for Gram-Schmidt orthonormalisation) not specified.
  Using default value basis_acc =  0.1000000E-03.
  Species W                   : Using default innermost maximum threshold i_radial=  2 for radial functions.
  Species W                   : Default cutoff onset for free atom density etc. : 0.40000000E+01 AA.
  Species W                   : Basic radial grid will be enhanced according to radial_multiplier =   2, to contain   143 grid points.
 
  Finished reading input file 'control.in'.
 
------------------------------------------------------------


------------------------------------------------------------
          Reading geometry description geometry.in.
------------------------------------------------------------
  Vacuum level in z-axis :   0.103288E+03
  | The smallest distance between any two atoms is         2.51216470 AA.
  | The first atom of this pair is atom number                      1 .
  | The second atom of this pair is atom number                    75 .
  | Wigner-Seitz cell of the first atom image           0     0     0 .
  | (The Wigner-Seitz cell of the second atom is 0 0 0  by definition.)

  Symmetry information by spglib:
  | Precision set to  0.1E-04
  | Number of Operations  : 1
  | Space group           : 1
  | International         : P1 W
  | Schoenflies           : C1^1
  Input structure read successfully.
  The structure contains       75 atoms,  and a total of       2750.000 electrons.

  Input geometry:
  | Unit cell:
  |       16.31232095        0.00000000        0.00000000
  |       -8.15665875       14.12581815        0.00000000
  |        0.00000000        0.00000000      103.32585319
  | Atomic structure:
  |       Atom                x [A]            y [A]            z [A]
  |    1: Species Mo           -0.00002610        0.94075451       51.62766912
  |    2: Species Se            1.63121908        1.88247426       53.29006360
  |    3: Species Se            1.63117769        1.88242366       49.96519791
  |    4: Species Mo           -1.63136426        3.76591600       51.62763888
  |    5: Species Se           -0.00011100        4.70761048       53.29004247
  |    6: Species Se           -0.00015686        4.70763112       49.96518897
  |    7: Species Mo           -3.26268531        6.59109018       51.62767858
  |    8: Species Se           -1.63144706        7.53276189       53.29008574
  |    9: Species Se           -1.63148826        7.53279595       49.96522024
  |   10: Species Mo           -4.89401686        9.41624866       51.62771665
  |   11: Species Se           -3.26277260       10.35794893       53.29012275
  |   12: Species Se           -3.26281619       10.35792719       49.96525304
  |   13: Species Mo           -6.52536470       12.24138857       51.62771773
  |   14: Species Se           -4.89411332       13.18313800       53.29008915
  |   15: Species Se           -4.89415942       13.18308251       49.96524677
  |   16: Species Mo            3.26244831        0.94075208       51.62762157
  |   17: Species Se            4.89363020        1.88245670       53.29003757
  |   18: Species Se            4.89367560        1.88245489       49.96519940
  |   19: Species Mo            1.63111309        3.76591332       51.62759366
  |   20: Species Se            3.26229563        4.70757451       53.29001923
  |   21: Species Se            3.26234084        4.70765045       49.96518656
  |   22: Species Mo           -0.00023172        6.59108103       51.62762875
  |   23: Species Se            1.63097296        7.53272916       53.29005454
  |   24: Species Se            1.63101524        7.53281729       49.96522684
  |   25: Species Mo           -1.63156158        9.41624145       51.62765615
  |   26: Species Se           -0.00036482       10.35791858       53.29010488
  |   27: Species Se           -0.00031963       10.35794868       49.96525358
  |   28: Species Mo           -3.26289272       12.24140628       51.62767094
  |   29: Species Se           -1.63169012       13.18310735       53.29006971
  |   30: Species Se           -1.63164325       13.18309653       49.96524255
  |   31: Species Mo            6.52488671        0.94075413       51.62764920
  |   32: Species Se            8.15608654        1.88244174       53.29007819
  |   33: Species Se            8.15616003        1.88245757       49.96524972
  |   34: Species Mo            4.89356014        3.76592081       51.62762637
  |   35: Species Se            6.52476570        4.70757352       53.29006453
  |   36: Species Se            6.52483645        4.70766249       49.96523680
  |   37: Species Mo            3.26224172        6.59107836       51.62766130
  |   38: Species Se            4.89342462        7.53273091       53.29010902
  |   39: Species Se            4.89349899        7.53283580       49.96526904
  |   40: Species Mo            1.63090559        9.41624820       51.62769449
  |   41: Species Se            3.26209650       10.35791873       53.29014078
  |   42: Species Se            3.26216852       10.35796380       49.96530573
  |   43: Species Mo           -0.00042396       12.24138076       51.62769597
  |   44: Species Se            1.63075959       13.18310698       53.29011684
  |   45: Species Se            1.63083067       13.18311031       49.96528651
  |   46: Species Mo            9.78738639        0.94077187       51.62770053
  |   47: Species Se           11.41859225        1.88247348       53.29014056
  |   48: Species Se           11.41859923        1.88244896       49.96526095
  |   49: Species Mo            8.15605301        3.76591938       51.62766359
  |   50: Species Se            9.78725503        4.70759749       53.29012081
  |   51: Species Se            9.78726509        4.70764789       49.96525363
  |   52: Species Mo            6.52470960        6.59108671       51.62770785
  |   53: Species Se            8.15592894        7.53275266       53.29015604
  |   54: Species Se            8.15593574        7.53281656       49.96529356
  |   55: Species Mo            4.89338685        9.41624290       51.62774949
  |   56: Species Se            6.52458708       10.35793014       53.29020036
  |   57: Species Se            6.52460030       10.35794607       49.96531342
  |   58: Species Mo            3.26204294       12.24141201       51.62775460
  |   59: Species Se            4.89326909       13.18312470       53.29016288
  |   60: Species Se            4.89327895       13.18309744       49.96531441
  |   61: Species Mo           13.04981865        0.94075288       51.62771552
  |   62: Species Se           14.68106217        1.88245899       53.29009435
  |   63: Species Se           14.68103269        1.88242620       49.96525333
  |   64: Species Mo           11.41849599        3.76590992       51.62768610
  |   65: Species Se           13.04972505        4.70759876       53.29008197
  |   66: Species Se           13.04970276        4.70762788       49.96523582
  |   67: Species Mo            9.78716292        6.59107593       51.62771718
  |   68: Species Se           11.41839254        7.53275822       53.29012603
  |   69: Species Se           11.41836705        7.53279765       49.96527021
  |   70: Species Mo            8.15582401        9.41625245       51.62776467
  |   71: Species Se            9.78706778       10.35792424       53.29016116
  |   72: Species Se            9.78703857       10.35792553       49.96530038
  |   73: Species Mo            6.52451322       12.24138681       51.62776926
  |   74: Species Se            8.15573328       13.18314034       53.29013301
  |   75: Species Se            8.15570624       13.18309340       49.96529812

  Lattice parameters for 3D lattice (in Angstroms) :    16.312321   16.311647  103.325853
  Angle(s) between unit vectors (in degrees)       :    90.000000   90.000000  120.003388


  Quantities derived from the lattice vectors:
  | Reciprocal lattice vector 1:  0.385180  0.222414  0.000000
  | Reciprocal lattice vector 2:  0.000000  0.444802  0.000000
  | Reciprocal lattice vector 3:  0.000000  0.000000  0.060809
  | Unit cell volume                               :   0.238088E+05  A^3

  Fractional coordinates:
                         L1                L2                L3
       atom_frac         0.03329955        0.06659823        0.49965877  Mo
       atom_frac         0.16663567        0.13326480        0.51574763  Se
       atom_frac         0.16663134        0.13326121        0.48356918  Se
       atom_frac         0.03329908        0.26659808        0.49965848  Mo
       atom_frac         0.16663480        0.33326285        0.51574742  Se
       atom_frac         0.16663272        0.33326432        0.48356909  Se
       atom_frac         0.03330011        0.46659883        0.49965887  Mo
       atom_frac         0.16663411        0.53326199        0.51574784  Se
       atom_frac         0.16663279        0.53326440        0.48356939  Se
       atom_frac         0.03329994        0.66659846        0.49965923  Mo
       atom_frac         0.16663532        0.73326365        0.51574820  Se
       atom_frac         0.16663187        0.73326211        0.48356971  Se
       atom_frac         0.03329811        0.86659678        0.49965924  Mo
       atom_frac         0.16663567        0.93326545        0.51574787  Se
       atom_frac         0.16663088        0.93326152        0.48356965  Se
       atom_frac         0.23330009        0.06659806        0.49965831  Mo
       atom_frac         0.36663180        0.13326355        0.51574738  Se
       atom_frac         0.36663451        0.13326342        0.48356919  Se
       atom_frac         0.23329979        0.26659789        0.49965804  Mo
       atom_frac         0.36663000        0.33326031        0.51574720  Se
       atom_frac         0.36663546        0.33326568        0.48356907  Se
       atom_frac         0.23329914        0.46659818        0.49965838  Mo
       atom_frac         0.36663024        0.53325967        0.51574754  Se
       atom_frac         0.36663595        0.53326591        0.48356946  Se
       atom_frac         0.23329914        0.66659795        0.49965865  Mo
       atom_frac         0.36663078        0.73326150        0.51574803  Se
       atom_frac         0.36663462        0.73326363        0.48356972  Se
       atom_frac         0.23329922        0.86659804        0.49965879  Mo
       atom_frac         0.36663207        0.93326328        0.51574769  Se
       atom_frac         0.36663456        0.93326251        0.48356961  Se
       atom_frac         0.43329858        0.06659820        0.49965858  Mo
       atom_frac         0.56663078        0.13326249        0.51574777  Se
       atom_frac         0.56663585        0.13326361        0.48356968  Se
       atom_frac         0.43329901        0.26659842        0.49965836  Mo
       atom_frac         0.56663033        0.33326024        0.51574764  Se
       atom_frac         0.56663781        0.33326654        0.48356955  Se
       atom_frac         0.43329961        0.46659799        0.49965870  Mo
       atom_frac         0.56662953        0.53325980        0.51574807  Se
       atom_frac         0.56663781        0.53326722        0.48356987  Se
       atom_frac         0.43329956        0.66659843        0.49965902  Mo
       atom_frac         0.56663061        0.73326151        0.51574837  Se
       atom_frac         0.56663662        0.73326470        0.48357022  Se
       atom_frac         0.43329860        0.86659623        0.49965903  Mo
       atom_frac         0.56663117        0.93326325        0.51574814  Se
       atom_frac         0.56663564        0.93326349        0.48357004  Se
       atom_frac         0.63330139        0.06659946        0.49965908  Mo
       atom_frac         0.76663445        0.13326474        0.51574837  Se
       atom_frac         0.76663401        0.13326300        0.48356979  Se
       atom_frac         0.63330072        0.26659832        0.49965872  Mo
       atom_frac         0.76663272        0.33326193        0.51574818  Se
       atom_frac         0.76663512        0.33326550        0.48356972  Se
       atom_frac         0.63330013        0.46659858        0.49965915  Mo
       atom_frac         0.76663276        0.53326134        0.51574852  Se
       atom_frac         0.76663544        0.53326586        0.48357010  Se
       atom_frac         0.63330042        0.66659805        0.49965955  Mo
       atom_frac         0.76663263        0.73326232        0.51574895  Se
       atom_frac         0.76663401        0.73326344        0.48357030  Se
       atom_frac         0.63329987        0.86659844        0.49965960  Mo
       atom_frac         0.76663457        0.93326451        0.51574859  Se
       atom_frac         0.76663421        0.93326258        0.48357031  Se
       atom_frac         0.83329876        0.06659812        0.49965922  Mo
       atom_frac         0.96663429        0.13326371        0.51574792  Se
       atom_frac         0.96663132        0.13326139        0.48356971  Se
       atom_frac         0.83329908        0.26659765        0.49965894  Mo
       atom_frac         0.96663312        0.33326202        0.51574780  Se
       atom_frac         0.96663278        0.33326409        0.48356955  Se
       atom_frac         0.83329908        0.46659782        0.49965924  Mo
       atom_frac         0.96663292        0.53326173        0.51574823  Se
       atom_frac         0.96663276        0.53326452        0.48356988  Se
       atom_frac         0.83329910        0.66659873        0.49965970  Mo
       atom_frac         0.96663344        0.73326190        0.51574857  Se
       atom_frac         0.96663169        0.73326199        0.48357017  Se
       atom_frac         0.83329935        0.86659666        0.49965974  Mo
       atom_frac         0.96663513        0.93326561        0.51574830  Se
       atom_frac         0.96663181        0.93326229        0.48357015  Se

  Initial moments and charges:
  |  Atom   Moment         Charge        Species
  |     1   0.100000E+01   0.000000E+00   Mo
  |     2   0.100000E+01   0.000000E+00   Se
  |     3   0.100000E+01   0.000000E+00   Se
  |     4   0.100000E+01   0.000000E+00   Mo
  |     5   0.100000E+01   0.000000E+00   Se
  |     6   0.100000E+01   0.000000E+00   Se
  |     7   0.100000E+01   0.000000E+00   Mo
  |     8   0.100000E+01   0.000000E+00   Se
  |     9   0.100000E+01   0.000000E+00   Se
  |    10   0.100000E+01   0.000000E+00   Mo
  |    11   0.100000E+01   0.000000E+00   Se
  |    12   0.100000E+01   0.000000E+00   Se
  |    13   0.100000E+01   0.000000E+00   Mo
  |    14   0.100000E+01   0.000000E+00   Se
  |    15   0.100000E+01   0.000000E+00   Se
  |    16   0.100000E+01   0.000000E+00   Mo
  |    17   0.100000E+01   0.000000E+00   Se
  |    18   0.100000E+01   0.000000E+00   Se
  |    19   0.100000E+01   0.000000E+00   Mo
  |    20   0.100000E+01   0.000000E+00   Se
  |    21   0.100000E+01   0.000000E+00   Se
  |    22   0.100000E+01   0.000000E+00   Mo
  |    23   0.100000E+01   0.000000E+00   Se
  |    24   0.100000E+01   0.000000E+00   Se
  |    25   0.100000E+01   0.000000E+00   Mo
  |    26   0.100000E+01   0.000000E+00   Se
  |    27   0.100000E+01   0.000000E+00   Se
  |    28   0.100000E+01   0.000000E+00   Mo
  |    29   0.100000E+01   0.000000E+00   Se
  |    30   0.100000E+01   0.000000E+00   Se
  |    31   0.100000E+01   0.000000E+00   Mo
  |    32   0.100000E+01   0.000000E+00   Se
  |    33   0.100000E+01   0.000000E+00   Se
  |    34   0.100000E+01   0.000000E+00   Mo
  |    35   0.100000E+01   0.000000E+00   Se
  |    36   0.100000E+01   0.000000E+00   Se
  |    37   0.100000E+01   0.000000E+00   Mo
  |    38   0.100000E+01   0.000000E+00   Se
  |    39   0.100000E+01   0.000000E+00   Se
  |    40   0.100000E+01   0.000000E+00   Mo
  |    41   0.100000E+01   0.000000E+00   Se
  |    42   0.100000E+01   0.000000E+00   Se
  |    43   0.100000E+01   0.000000E+00   Mo
  |    44   0.100000E+01   0.000000E+00   Se
  |    45   0.100000E+01   0.000000E+00   Se
  |    46   0.100000E+01   0.000000E+00   Mo
  |    47   0.100000E+01   0.000000E+00   Se
  |    48   0.100000E+01   0.000000E+00   Se
  |    49   0.100000E+01   0.000000E+00   Mo
  |    50   0.100000E+01   0.000000E+00   Se
  |    51   0.100000E+01   0.000000E+00   Se
  |    52   0.100000E+01   0.000000E+00   Mo
  |    53   0.100000E+01   0.000000E+00   Se
  |    54   0.100000E+01   0.000000E+00   Se
  |    55   0.100000E+01   0.000000E+00   Mo
  |    56   0.100000E+01   0.000000E+00   Se
  |    57   0.100000E+01   0.000000E+00   Se
  |    58   0.100000E+01   0.000000E+00   Mo
  |    59   0.100000E+01   0.000000E+00   Se
  |    60   0.100000E+01   0.000000E+00   Se
  |    61   0.100000E+01   0.000000E+00   Mo
  |    62   0.100000E+01   0.000000E+00   Se
  |    63   0.100000E+01   0.000000E+00   Se
  |    64   0.100000E+01   0.000000E+00   Mo
  |    65   0.100000E+01   0.000000E+00   Se
  |    66   0.100000E+01   0.000000E+00   Se
  |    67   0.100000E+01   0.000000E+00   Mo
  |    68   0.100000E+01   0.000000E+00   Se
  |    69   0.100000E+01   0.000000E+00   Se
  |    70   0.100000E+01   0.000000E+00   Mo
  |    71   0.100000E+01   0.000000E+00   Se
  |    72   0.100000E+01   0.000000E+00   Se
  |    73   0.100000E+01   0.000000E+00   Mo
  |    74   0.100000E+01   0.000000E+00   Se
  |    75   0.100000E+01   0.000000E+00   Se

 
  Finished reading input file 'control.in'.
 

------------------------------------------------------------
          Reading geometry description geometry.in.
------------------------------------------------------------
 
  Consistency checks for stacksize environment parameter are next.
 
  | Maximum stacksize for task 0: unlimited
  | Maximum stacksize for task 1: unlimited
  | Maximum stacksize for task 2: unlimited
  | Maximum stacksize for task 3: unlimited
  | Maximum stacksize for task 4: unlimited
  | Maximum stacksize for task 5: unlimited
  | Maximum stacksize for task 6: unlimited
  | Maximum stacksize for task 7: unlimited
  | Maximum stacksize for task 8: unlimited
  | Maximum stacksize for task 9: unlimited
  | Maximum stacksize for task 10: unlimited
  | Maximum stacksize for task 11: unlimited
  | Maximum stacksize for task 12: unlimited
  | Maximum stacksize for task 13: unlimited
  | Maximum stacksize for task 14: unlimited
  | Maximum stacksize for task 15: unlimited
  | Maximum stacksize for task 16: unlimited
  | Maximum stacksize for task 17: unlimited
  | Maximum stacksize for task 18: unlimited
  | Maximum stacksize for task 19: unlimited
  | Maximum stacksize for task 20: unlimited
  | Maximum stacksize for task 21: unlimited
  | Maximum stacksize for task 22: unlimited
  | Maximum stacksize for task 23: unlimited
  | Maximum stacksize for task 24: unlimited
  | Maximum stacksize for task 25: unlimited
  | Maximum stacksize for task 26: unlimited
  | Maximum stacksize for task 27: unlimited
  | Maximum stacksize for task 28: unlimited
  | Maximum stacksize for task 29: unlimited
  | Maximum stacksize for task 30: unlimited
  | Maximum stacksize for task 31: unlimited
  | Maximum stacksize for task 32: unlimited
  | Maximum stacksize for task 33: unlimited
  | Maximum stacksize for task 34: unlimited
  | Maximum stacksize for task 35: unlimited
  | Maximum stacksize for task 36: unlimited
  | Maximum stacksize for task 37: unlimited
  | Maximum stacksize for task 38: unlimited
  | Maximum stacksize for task 39: unlimited
  | Maximum stacksize for task 40: unlimited
  | Maximum stacksize for task 41: unlimited
  | Maximum stacksize for task 42: unlimited
  | Maximum stacksize for task 43: unlimited
  | Maximum stacksize for task 44: unlimited
  | Maximum stacksize for task 45: unlimited
  | Maximum stacksize for task 46: unlimited
  | Maximum stacksize for task 47: unlimited
  | Maximum stacksize for task 48: unlimited
  | Maximum stacksize for task 49: unlimited
  | Maximum stacksize for task 50: unlimited
  | Maximum stacksize for task 51: unlimited
  | Maximum stacksize for task 52: unlimited
  | Maximum stacksize for task 53: unlimited
  | Maximum stacksize for task 54: unlimited
  | Maximum stacksize for task 55: unlimited
  | Maximum stacksize for task 56: unlimited
  | Maximum stacksize for task 57: unlimited
  | Maximum stacksize for task 58: unlimited
  | Maximum stacksize for task 59: unlimited
  | Maximum stacksize for task 60: unlimited
  | Maximum stacksize for task 61: unlimited
  | Maximum stacksize for task 62: unlimited
  | Maximum stacksize for task 63: unlimited
  | Maximum stacksize for task 64: unlimited
  | Maximum stacksize for task 65: unlimited
  | Maximum stacksize for task 66: unlimited
  | Maximum stacksize for task 67: unlimited
  | Maximum stacksize for task 68: unlimited
  | Maximum stacksize for task 69: unlimited
  | Maximum stacksize for task 70: unlimited
  | Maximum stacksize for task 71: unlimited
  | Maximum stacksize for task 72: unlimited
  | Maximum stacksize for task 73: unlimited
  | Maximum stacksize for task 74: unlimited
  | Maximum stacksize for task 75: unlimited
  | Maximum stacksize for task 76: unlimited
  | Maximum stacksize for task 77: unlimited
  | Maximum stacksize for task 78: unlimited
  | Maximum stacksize for task 79: unlimited
  | Maximum stacksize for task 80: unlimited
  | Maximum stacksize for task 81: unlimited
  | Maximum stacksize for task 82: unlimited
  | Maximum stacksize for task 83: unlimited
  | Maximum stacksize for task 84: unlimited
  | Maximum stacksize for task 85: unlimited
  | Maximum stacksize for task 86: unlimited
  | Maximum stacksize for task 87: unlimited
  | Maximum stacksize for task 88: unlimited
  | Maximum stacksize for task 89: unlimited
  | Maximum stacksize for task 90: unlimited
  | Maximum stacksize for task 91: unlimited
  | Maximum stacksize for task 92: unlimited
  | Maximum stacksize for task 93: unlimited
  | Maximum stacksize for task 94: unlimited
  | Maximum stacksize for task 95: unlimited
  | Maximum stacksize for task 96: unlimited
  | Maximum stacksize for task 97: unlimited
  | Maximum stacksize for task 98: unlimited
  | Maximum stacksize for task 99: unlimited
  | Maximum stacksize for task 100: unlimited
  | Maximum stacksize for task 101: unlimited
  | Maximum stacksize for task 102: unlimited
  | Maximum stacksize for task 103: unlimited
  | Maximum stacksize for task 104: unlimited
  | Maximum stacksize for task 105: unlimited
  | Maximum stacksize for task 106: unlimited
  | Maximum stacksize for task 107: unlimited
  | Maximum stacksize for task 108: unlimited
  | Maximum stacksize for task 109: unlimited
  | Maximum stacksize for task 110: unlimited
  | Maximum stacksize for task 111: unlimited
  | Maximum stacksize for task 112: unlimited
  | Maximum stacksize for task 113: unlimited
  | Maximum stacksize for task 114: unlimited
  | Maximum stacksize for task 115: unlimited
  | Maximum stacksize for task 116: unlimited
  | Maximum stacksize for task 117: unlimited
  | Maximum stacksize for task 118: unlimited
  | Maximum stacksize for task 119: unlimited
  | Maximum stacksize for task 120: unlimited
  | Maximum stacksize for task 121: unlimited
  | Maximum stacksize for task 122: unlimited
  | Maximum stacksize for task 123: unlimited
  | Maximum stacksize for task 124: unlimited
  | Maximum stacksize for task 125: unlimited
  | Maximum stacksize for task 126: unlimited
  | Maximum stacksize for task 127: unlimited
  | Maximum stacksize for task 128: unlimited
  | Maximum stacksize for task 129: unlimited
  | Maximum stacksize for task 130: unlimited
  | Maximum stacksize for task 131: unlimited
  | Maximum stacksize for task 132: unlimited
  | Maximum stacksize for task 133: unlimited
  | Maximum stacksize for task 134: unlimited
  | Maximum stacksize for task 135: unlimited
  | Maximum stacksize for task 136: unlimited
  | Maximum stacksize for task 137: unlimited
  | Maximum stacksize for task 138: unlimited
  | Maximum stacksize for task 139: unlimited
  | Maximum stacksize for task 140: unlimited
  | Maximum stacksize for task 141: unlimited
  | Maximum stacksize for task 142: unlimited
  | Maximum stacksize for task 143: unlimited
  | Maximum stacksize for task 144: unlimited
  | Maximum stacksize for task 145: unlimited
  | Maximum stacksize for task 146: unlimited
  | Maximum stacksize for task 147: unlimited
  | Maximum stacksize for task 148: unlimited
  | Maximum stacksize for task 149: unlimited
  | Maximum stacksize for task 150: unlimited
  | Maximum stacksize for task 151: unlimited
  | Maximum stacksize for task 152: unlimited
  | Maximum stacksize for task 153: unlimited
  | Maximum stacksize for task 154: unlimited
  | Maximum stacksize for task 155: unlimited
  | Maximum stacksize for task 156: unlimited
  | Maximum stacksize for task 157: unlimited
  | Maximum stacksize for task 158: unlimited
  | Maximum stacksize for task 159: unlimited
  | Maximum stacksize for task 160: unlimited
  | Maximum stacksize for task 161: unlimited
  | Maximum stacksize for task 162: unlimited
  | Maximum stacksize for task 163: unlimited
  | Maximum stacksize for task 164: unlimited
  | Maximum stacksize for task 165: unlimited
  | Maximum stacksize for task 166: unlimited
  | Maximum stacksize for task 167: unlimited
  | Maximum stacksize for task 168: unlimited
  | Maximum stacksize for task 169: unlimited
  | Maximum stacksize for task 170: unlimited
  | Maximum stacksize for task 171: unlimited
  | Maximum stacksize for task 172: unlimited
  | Maximum stacksize for task 173: unlimited
  | Maximum stacksize for task 174: unlimited
  | Maximum stacksize for task 175: unlimited
  | Maximum stacksize for task 176: unlimited
  | Maximum stacksize for task 177: unlimited
  | Maximum stacksize for task 178: unlimited
  | Maximum stacksize for task 179: unlimited
  | Maximum stacksize for task 180: unlimited
  | Maximum stacksize for task 181: unlimited
  | Maximum stacksize for task 182: unlimited
  | Maximum stacksize for task 183: unlimited
  | Maximum stacksize for task 184: unlimited
  | Maximum stacksize for task 185: unlimited
  | Maximum stacksize for task 186: unlimited
  | Maximum stacksize for task 187: unlimited
  | Maximum stacksize for task 188: unlimited
  | Maximum stacksize for task 189: unlimited
  | Maximum stacksize for task 190: unlimited
  | Maximum stacksize for task 191: unlimited
  | Maximum stacksize for task 192: unlimited
  | Maximum stacksize for task 193: unlimited
  | Maximum stacksize for task 194: unlimited
  | Maximum stacksize for task 195: unlimited
  | Maximum stacksize for task 196: unlimited
  | Maximum stacksize for task 197: unlimited
  | Maximum stacksize for task 198: unlimited
  | Maximum stacksize for task 199: unlimited
  | Maximum stacksize for task 200: unlimited
  | Maximum stacksize for task 201: unlimited
  | Maximum stacksize for task 202: unlimited
  | Maximum stacksize for task 203: unlimited
  | Maximum stacksize for task 204: unlimited
  | Maximum stacksize for task 205: unlimited
  | Maximum stacksize for task 206: unlimited
  | Maximum stacksize for task 207: unlimited
  | Maximum stacksize for task 208: unlimited
  | Maximum stacksize for task 209: unlimited
  | Maximum stacksize for task 210: unlimited
  | Maximum stacksize for task 211: unlimited
  | Maximum stacksize for task 212: unlimited
  | Maximum stacksize for task 213: unlimited
  | Maximum stacksize for task 214: unlimited
  | Maximum stacksize for task 215: unlimited
  | Maximum stacksize for task 216: unlimited
  | Maximum stacksize for task 217: unlimited
  | Maximum stacksize for task 218: unlimited
  | Maximum stacksize for task 219: unlimited
  | Maximum stacksize for task 220: unlimited
  | Maximum stacksize for task 221: unlimited
  | Maximum stacksize for task 222: unlimited
  | Maximum stacksize for task 223: unlimited
  | Maximum stacksize for task 224: unlimited
  | Maximum stacksize for task 225: unlimited
  | Maximum stacksize for task 226: unlimited
  | Maximum stacksize for task 227: unlimited
  | Maximum stacksize for task 228: unlimited
  | Maximum stacksize for task 229: unlimited
  | Maximum stacksize for task 230: unlimited
  | Maximum stacksize for task 231: unlimited
  | Maximum stacksize for task 232: unlimited
  | Maximum stacksize for task 233: unlimited
  | Maximum stacksize for task 234: unlimited
  | Maximum stacksize for task 235: unlimited
  | Maximum stacksize for task 236: unlimited
  | Maximum stacksize for task 237: unlimited
  | Maximum stacksize for task 238: unlimited
  | Maximum stacksize for task 239: unlimited
  | Maximum stacksize for task 240: unlimited
  | Maximum stacksize for task 241: unlimited
  | Maximum stacksize for task 242: unlimited
  | Maximum stacksize for task 243: unlimited
  | Maximum stacksize for task 244: unlimited
  | Maximum stacksize for task 245: unlimited
  | Maximum stacksize for task 246: unlimited
  | Maximum stacksize for task 247: unlimited
  | Maximum stacksize for task 248: unlimited
  | Maximum stacksize for task 249: unlimited
  | Maximum stacksize for task 250: unlimited
  | Maximum stacksize for task 251: unlimited
  | Maximum stacksize for task 252: unlimited
  | Maximum stacksize for task 253: unlimited
  | Maximum stacksize for task 254: unlimited
  | Maximum stacksize for task 255: unlimited
  | Maximum stacksize for task 256: unlimited
  | Maximum stacksize for task 257: unlimited
  | Maximum stacksize for task 258: unlimited
  | Maximum stacksize for task 259: unlimited
  | Maximum stacksize for task 260: unlimited
  | Maximum stacksize for task 261: unlimited
  | Maximum stacksize for task 262: unlimited
  | Maximum stacksize for task 263: unlimited
  | Maximum stacksize for task 264: unlimited
  | Maximum stacksize for task 265: unlimited
  | Maximum stacksize for task 266: unlimited
  | Maximum stacksize for task 267: unlimited
  | Maximum stacksize for task 268: unlimited
  | Maximum stacksize for task 269: unlimited
  | Maximum stacksize for task 270: unlimited
  | Maximum stacksize for task 271: unlimited
  | Maximum stacksize for task 272: unlimited
  | Maximum stacksize for task 273: unlimited
  | Maximum stacksize for task 274: unlimited
  | Maximum stacksize for task 275: unlimited
  | Maximum stacksize for task 276: unlimited
  | Maximum stacksize for task 277: unlimited
  | Maximum stacksize for task 278: unlimited
  | Maximum stacksize for task 279: unlimited
  | Maximum stacksize for task 280: unlimited
  | Maximum stacksize for task 281: unlimited
  | Maximum stacksize for task 282: unlimited
  | Maximum stacksize for task 283: unlimited
  | Maximum stacksize for task 284: unlimited
  | Maximum stacksize for task 285: unlimited
  | Maximum stacksize for task 286: unlimited
  | Maximum stacksize for task 287: unlimited
  | Current stacksize for task 0: unlimited
  | Current stacksize for task 1: unlimited
  | Current stacksize for task 2: unlimited
  | Current stacksize for task 3: unlimited
  | Current stacksize for task 4: unlimited
  | Current stacksize for task 5: unlimited
  | Current stacksize for task 6: unlimited
  | Current stacksize for task 7: unlimited
  | Current stacksize for task 8: unlimited
  | Current stacksize for task 9: unlimited
  | Current stacksize for task 10: unlimited
  | Current stacksize for task 11: unlimited
  | Current stacksize for task 12: unlimited
  | Current stacksize for task 13: unlimited
  | Current stacksize for task 14: unlimited
  | Current stacksize for task 15: unlimited
  | Current stacksize for task 16: unlimited
  | Current stacksize for task 17: unlimited
  | Current stacksize for task 18: unlimited
  | Current stacksize for task 19: unlimited
  | Current stacksize for task 20: unlimited
  | Current stacksize for task 21: unlimited
  | Current stacksize for task 22: unlimited
  | Current stacksize for task 23: unlimited
  | Current stacksize for task 24: unlimited
  | Current stacksize for task 25: unlimited
  | Current stacksize for task 26: unlimited
  | Current stacksize for task 27: unlimited
  | Current stacksize for task 28: unlimited
  | Current stacksize for task 29: unlimited
  | Current stacksize for task 30: unlimited
  | Current stacksize for task 31: unlimited
  | Current stacksize for task 32: unlimited
  | Current stacksize for task 33: unlimited
  | Current stacksize for task 34: unlimited
  | Current stacksize for task 35: unlimited
  | Current stacksize for task 36: unlimited
  | Current stacksize for task 37: unlimited
  | Current stacksize for task 38: unlimited
  | Current stacksize for task 39: unlimited
  | Current stacksize for task 40: unlimited
  | Current stacksize for task 41: unlimited
  | Current stacksize for task 42: unlimited
  | Current stacksize for task 43: unlimited
  | Current stacksize for task 44: unlimited
  | Current stacksize for task 45: unlimited
  | Current stacksize for task 46: unlimited
  | Current stacksize for task 47: unlimited
  | Current stacksize for task 48: unlimited
  | Current stacksize for task 49: unlimited
  | Current stacksize for task 50: unlimited
  | Current stacksize for task 51: unlimited
  | Current stacksize for task 52: unlimited
  | Current stacksize for task 53: unlimited
  | Current stacksize for task 54: unlimited
  | Current stacksize for task 55: unlimited
  | Current stacksize for task 56: unlimited
  | Current stacksize for task 57: unlimited
  | Current stacksize for task 58: unlimited
  | Current stacksize for task 59: unlimited
  | Current stacksize for task 60: unlimited
  | Current stacksize for task 61: unlimited
  | Current stacksize for task 62: unlimited
  | Current stacksize for task 63: unlimited
  | Current stacksize for task 64: unlimited
  | Current stacksize for task 65: unlimited
  | Current stacksize for task 66: unlimited
  | Current stacksize for task 67: unlimited
  | Current stacksize for task 68: unlimited
  | Current stacksize for task 69: unlimited
  | Current stacksize for task 70: unlimited
  | Current stacksize for task 71: unlimited
  | Current stacksize for task 72: unlimited
  | Current stacksize for task 73: unlimited
  | Current stacksize for task 74: unlimited
  | Current stacksize for task 75: unlimited
  | Current stacksize for task 76: unlimited
  | Current stacksize for task 77: unlimited
  | Current stacksize for task 78: unlimited
  | Current stacksize for task 79: unlimited
  | Current stacksize for task 80: unlimited
  | Current stacksize for task 81: unlimited
  | Current stacksize for task 82: unlimited
  | Current stacksize for task 83: unlimited
  | Current stacksize for task 84: unlimited
  | Current stacksize for task 85: unlimited
  | Current stacksize for task 86: unlimited
  | Current stacksize for task 87: unlimited
  | Current stacksize for task 88: unlimited
  | Current stacksize for task 89: unlimited
  | Current stacksize for task 90: unlimited
  | Current stacksize for task 91: unlimited
  | Current stacksize for task 92: unlimited
  | Current stacksize for task 93: unlimited
  | Current stacksize for task 94: unlimited
  | Current stacksize for task 95: unlimited
  | Current stacksize for task 96: unlimited
  | Current stacksize for task 97: unlimited
  | Current stacksize for task 98: unlimited
  | Current stacksize for task 99: unlimited
  | Current stacksize for task 100: unlimited
  | Current stacksize for task 101: unlimited
  | Current stacksize for task 102: unlimited
  | Current stacksize for task 103: unlimited
  | Current stacksize for task 104: unlimited
  | Current stacksize for task 105: unlimited
  | Current stacksize for task 106: unlimited
  | Current stacksize for task 107: unlimited
  | Current stacksize for task 108: unlimited
  | Current stacksize for task 109: unlimited
  | Current stacksize for task 110: unlimited
  | Current stacksize for task 111: unlimited
  | Current stacksize for task 112: unlimited
  | Current stacksize for task 113: unlimited
  | Current stacksize for task 114: unlimited
  | Current stacksize for task 115: unlimited
  | Current stacksize for task 116: unlimited
  | Current stacksize for task 117: unlimited
  | Current stacksize for task 118: unlimited
  | Current stacksize for task 119: unlimited
  | Current stacksize for task 120: unlimited
[...]
  |    32       34.049403       -0.049403        7.887505       15.928261       10.187114        0.046522
  |    33       34.049402       -0.049402        7.887506       15.928265       10.187110        0.046521
  |    34       41.901200        0.098800        8.193720       18.728716       14.892154        0.086611
  |    35       34.049401       -0.049401        7.887503       15.928259       10.187116        0.046523
  |    36       34.049403       -0.049403        7.887507       15.928268       10.187108        0.046520
  |    37       41.901197        0.098803        8.193719       18.728714       14.892153        0.086611
  |    38       34.049401       -0.049401        7.887503       15.928261       10.187114        0.046522
  |    39       34.049399       -0.049399        7.887506       15.928261       10.187110        0.046521
  |    40       41.901198        0.098802        8.193720       18.728716       14.892152        0.086611
  |    41       34.049403       -0.049403        7.887505       15.928267       10.187110        0.046521
  |    42       34.049398       -0.049398        7.887505       15.928259       10.187113        0.046522
  |    43       41.901199        0.098801        8.193720       18.728716       14.892153        0.086611
  |    44       34.049403       -0.049403        7.887504       15.928265       10.187112        0.046522
  |    45       34.049400       -0.049400        7.887506       15.928264       10.187109        0.046521
  |    46       41.901193        0.098807        8.193718       18.728716       14.892149        0.086610
  |    47       34.049401       -0.049401        7.887507       15.928263       10.187110        0.046521
  |    48       34.049402       -0.049402        7.887506       15.928262       10.187113        0.046522
  |    49       41.901197        0.098803        8.193722       18.728716       14.892148        0.086611
  |    50       34.049400       -0.049400        7.887506       15.928262       10.187111        0.046521
  |    51       34.049403       -0.049403        7.887506       15.928264       10.187112        0.046522
  |    52       41.901197        0.098803        8.193723       18.728715       14.892149        0.086611
  |    53       34.049401       -0.049401        7.887506       15.928265       10.187109        0.046521
  |    54       34.049398       -0.049398        7.887506       15.928257       10.187114        0.046522
  |    55       41.901199        0.098801        8.193722       18.728715       14.892151        0.086611
  |    56       34.049402       -0.049402        7.887507       15.928269       10.187106        0.046520
  |    57       34.049399       -0.049399        7.887505       15.928257       10.187115        0.046523
  |    58       41.901196        0.098804        8.193722       18.728717       14.892147        0.086610
  |    59       34.049402       -0.049402        7.887506       15.928267       10.187109        0.046521
  |    60       34.049401       -0.049401        7.887505       15.928261       10.187113        0.046522
  |    61       41.901190        0.098810        8.193716       18.728714       14.892149        0.086611
  |    62       34.049400       -0.049400        7.887506       15.928258       10.187114        0.046522
  |    63       34.049401       -0.049401        7.887505       15.928262       10.187113        0.046522
  |    64       41.901197        0.098803        8.193721       18.728714       14.892151        0.086611
  |    65       34.049397       -0.049397        7.887504       15.928255       10.187116        0.046522
  |    66       34.049401       -0.049401        7.887506       15.928264       10.187110        0.046521
  |    67       41.901195        0.098805        8.193722       18.728713       14.892149        0.086611
  |    68       34.049399       -0.049399        7.887505       15.928261       10.187111        0.046521
  |    69       34.049399       -0.049399        7.887506       15.928259       10.187113        0.046522
  |    70       41.901197        0.098803        8.193721       18.728713       14.892151        0.086611
  |    71       34.049400       -0.049400        7.887506       15.928264       10.187109        0.046521
  |    72       34.049398       -0.049398        7.887504       15.928257       10.187115        0.046522
  |    73       41.901196        0.098804        8.193721       18.728714       14.892150        0.086610
  |    74       34.049399       -0.049399        7.887504       15.928260       10.187113        0.046522
  |    75       34.049398       -0.049398        7.887503       15.928257       10.187116        0.046523
  |
  | Total     2750.000000       -0.000000
 
  Summary of the per-atom spin analysis:
  |
  |  atom   spin      l=0         l=1         l=2         l=3
  |     1   -0.000002   -0.000000   -0.000000   -0.000002    0.000000
  |     2    0.000001    0.000000    0.000001    0.000000    0.000000
  |     3    0.000001    0.000000    0.000001    0.000000    0.000000
  |     4   -0.000002   -0.000000   -0.000000   -0.000002    0.000000
  |     5    0.000001    0.000000    0.000001    0.000000    0.000000
  |     6    0.000001    0.000000    0.000001    0.000000    0.000000
  |     7   -0.000002   -0.000000   -0.000000   -0.000002    0.000000
  |     8    0.000001    0.000000    0.000001    0.000000    0.000000
  |     9    0.000001    0.000000    0.000001    0.000000    0.000000
  |    10   -0.000002   -0.000000   -0.000000   -0.000002    0.000000
  |    11    0.000001    0.000000    0.000001    0.000000    0.000000
  |    12    0.000001    0.000000    0.000001    0.000000    0.000000
  |    13   -0.000002   -0.000000   -0.000000   -0.000002    0.000000
  |    14    0.000001    0.000000    0.000001    0.000000    0.000000
  |    15    0.000001    0.000000    0.000001    0.000000    0.000000
  |    16   -0.000002   -0.000000   -0.000000   -0.000002    0.000000
  |    17    0.000001    0.000000    0.000001    0.000000    0.000000
  |    18    0.000001    0.000000    0.000001    0.000000    0.000000
  |    19   -0.000002   -0.000000   -0.000000   -0.000002    0.000000
  |    20    0.000001    0.000000    0.000001    0.000000    0.000000
  |    21    0.000001    0.000000    0.000001    0.000000    0.000000
  |    22   -0.000002   -0.000000   -0.000000   -0.000002    0.000000
  |    23    0.000001    0.000000    0.000001    0.000000    0.000000
  |    24    0.000001    0.000000    0.000001    0.000000    0.000000
  |    25   -0.000002   -0.000000   -0.000000   -0.000002    0.000000
  |    26    0.000001    0.000000    0.000001    0.000000    0.000000
  |    27    0.000001    0.000000    0.000001    0.000000    0.000000
  |    28   -0.000002   -0.000000   -0.000000   -0.000002    0.000000
  |    29    0.000001    0.000000    0.000001    0.000000    0.000000
  |    30    0.000001    0.000000    0.000001    0.000000    0.000000
  |    31   -0.000002   -0.000000   -0.000000   -0.000002    0.000000
  |    32    0.000001    0.000000    0.000001    0.000000    0.000000
  |    33    0.000001    0.000000    0.000001    0.000000    0.000000
  |    34   -0.000002   -0.000000   -0.000000   -0.000002    0.000000
  |    35    0.000001    0.000000    0.000001    0.000000    0.000000
  |    36    0.000001    0.000000    0.000001    0.000000    0.000000
  |    37   -0.000002   -0.000000   -0.000000   -0.000002    0.000000
  |    38    0.000001    0.000000    0.000001    0.000000    0.000000
  |    39    0.000001    0.000000    0.000001    0.000000    0.000000
  |    40   -0.000002   -0.000000   -0.000000   -0.000002    0.000000
  |    41    0.000001    0.000000    0.000001    0.000000    0.000000
  |    42    0.000001    0.000000    0.000001    0.000000    0.000000
  |    43   -0.000002   -0.000000   -0.000000   -0.000002    0.000000
  |    44    0.000001    0.000000    0.000001    0.000000    0.000000
  |    45    0.000001    0.000000    0.000001    0.000000    0.000000
  |    46   -0.000002   -0.000000   -0.000000   -0.000002    0.000000
  |    47    0.000001    0.000000    0.000001    0.000000    0.000000
  |    48    0.000001    0.000000    0.000001    0.000000    0.000000
  |    49   -0.000002   -0.000000   -0.000000   -0.000002    0.000000
  |    50    0.000001    0.000000    0.000001    0.000000    0.000000
  |    51    0.000001    0.000000    0.000001    0.000000    0.000000
  |    52   -0.000002   -0.000000   -0.000000   -0.000002    0.000000
  |    53    0.000001    0.000000    0.000001    0.000000    0.000000
  |    54    0.000001    0.000000    0.000001    0.000000    0.000000
  |    55   -0.000002   -0.000000   -0.000000   -0.000002    0.000000
  |    56    0.000001    0.000000    0.000001    0.000000    0.000000
  |    57    0.000001    0.000000    0.000001    0.000000    0.000000
  |    58   -0.000002   -0.000000   -0.000000   -0.000002    0.000000
  |    59    0.000001    0.000000    0.000001    0.000000    0.000000
  |    60    0.000001    0.000000    0.000001    0.000000    0.000000
  |    61   -0.000002   -0.000000   -0.000000   -0.000002    0.000000
  |    62    0.000001    0.000000    0.000001    0.000000    0.000000
  |    63    0.000001    0.000000    0.000001    0.000000    0.000000
  |    64   -0.000002   -0.000000   -0.000000   -0.000002    0.000000
  |    65    0.000001    0.000000    0.000001    0.000000    0.000000
  |    66    0.000001    0.000000    0.000001    0.000000    0.000000
  |    67   -0.000002   -0.000000   -0.000000   -0.000002    0.000000
  |    68    0.000001    0.000000    0.000001    0.000000    0.000000
  |    69    0.000001    0.000000    0.000001    0.000000    0.000000
  |    70   -0.000002   -0.000000   -0.000000   -0.000002    0.000000
  |    71    0.000001    0.000000    0.000001    0.000000    0.000000
  |    72    0.000001    0.000000    0.000001    0.000000    0.000000
  |    73   -0.000002   -0.000000   -0.000000   -0.000002    0.000000
  |    74    0.000001    0.000000    0.000001    0.000000    0.000000
  |    75    0.000001    0.000000    0.000001    0.000000    0.000000
  |
  | Total   -0.000000
 
  Calculating angular momentum projected density of states ...
  | Chemical potential is  -4.375735 eV.
  | writing   projected DOS (shifted by the chemical potential) for species Se to file Se_l_proj_dos_tetrahedron.dat.
  | writing   projected DOS (raw data) for species Se to file Se_l_proj_dos_tetrahedron_raw.dat.
  | writing   projected DOS (shifted by the chemical potential) for species S to file S_l_proj_dos_tetrahedron.dat.
  | writing   projected DOS (raw data) for species S to file S_l_proj_dos_tetrahedron_raw.dat.
  | writing   projected DOS (shifted by the chemical potential) for species Mo to file Mo_l_proj_dos_tetrahedron.dat.
  | writing   projected DOS (raw data) for species Mo to file Mo_l_proj_dos_tetrahedron_raw.dat.
  | writing   projected DOS (shifted by the chemical potential) for species W to file W_l_proj_dos_tetrahedron.dat.
  | writing   projected DOS (raw data) for species W to file W_l_proj_dos_tetrahedron_raw.dat.

  Mulliken analysis                                       :  max(cpu_time)    wall_clock(cpu1)
  | Time for Mulliken analysis (scalar relativistic)      :          0.808               0.866
  | Time for Mulliken analysis (spin-orbit coupled)       :          2.034               2.040
  | Total time for Mulliken analysis                      :          2.842               2.906
------------------------------------------------------------

------------------------------------------------------------------------------
  Final output of selected total energy values:

  The following output summarizes some interesting total energy values
  at the end of a run (AFTER all relaxation, molecular dynamics, etc.).

  | Total energy of the DFT / Hartree-Fock s.c.f. calculation      :       -6108392.710730463 eV
  | Final zero-broadening corrected energy (caution - metals only) :       -6108392.710730463 eV
  | Total energy after non-SC SOC correction (DO NOT USE)          :       -6108396.724706566 eV
  | For reference only, the value of 1 Hartree used in FHI-aims is :             27.211384500 eV
  | For reference only, the overall average (free atom contribution
  | + realspace contribution) of the electrostatic potential after
  | s.c.f. convergence is                                          :             -1.227728489 eV

  Before relying on these values, please be sure to understand exactly which
  total energy value is referred to by a given number. Different objects may
  all carry the same name 'total energy'. Definitions:

  Total energy of the DFT / Hartree-Fock s.c.f. calculation:
  | Note that this energy does not include ANY quantities calculated after the
  | s.c.f. cycle, in particular not ANY RPA, MP2, etc. many-body perturbation terms.

  Final zero-broadening corrected energy:
  | For metallic systems only, a broadening of the occupation numbers at the Fermi
  | level can be extrapolated back to zero broadening by an electron-gas inspired
  | formula. For all systems that are not real metals, this value can be
  | meaningless and should be avoided.

------------------------------------------------------------------------------
  Methods described in the following list of references were used in this FHI-aims run.
  If you publish the results, please make sure to cite these reference if they apply.
  FHI-aims is an academic code, and for our developers (often, Ph.D. students
  and postdocs), scientific credit in the community is essential.
  Thank you for helping us!

  For any use of FHI-aims, please cite:

    Volker Blum, Ralf Gehrke, Felix Hanke, Paula Havu, Ville Havu,
    Xinguo Ren, Karsten Reuter, and Matthias Scheffler
    'Ab initio molecular simulations with numeric atom-centered orbitals'
    Computer Physics Communications 180, 2175-2196 (2009)
    http://doi.org/10.1016/j.cpc.2009.06.022


  For Hartree-Fock, hybrid functionals, or many-body perturbation theory used in your run, please cite:

    Xinguo Ren, Patrick Rinke, Volker Blum, Juergen Wieferink, Alex Tkatchenko,
    Andrea Sanfilippo, Karsten Reuter, and Matthias Scheffler,
    'Resolution-of-identity approach to Hartree-Fock, hybrid density functionals,
    RPA, MP2, and GW with numeric atom-centered orbital basis functions'
    New Journal of Physics 14, 053020 (2012).
    http://doi.org/10.1088/1367-2630/14/5/053020


  The provided symmetry information was generated with SPGlib:

    Atsushi Togo, Yusuke Seto, Dimitar Pashov
    SPGlib 1.7.3 obtained from http://spglib.sourceforge.net
    Copyright (C) 2008 Atsushi Togo


  For second-variational spin-orbit coupling used in your run, please cite:

    William P. Huhn and Volker Blum,
    'One-hundred-three compound band-structure benchmark of post-self-consistent'
    'spin-orbit coupling treatments in density functional theory'
    Phys. Rev. Materials 1, 033803 (2017).


  The ELSI infrastructure was used in your run to solve the Kohn-Sham electronic structure.
  Please check out http://elsi-interchange.org to learn more.
  If scalability is important for your project, please acknowledge ELSI by citing:

    V. W-z. Yu, F. Corsetti, A. Garcia, W. P. Huhn, M. Jacquelin, W. Jia,
    B. Lange, L. Lin, J. Lu, W. Mi, A. Seifitokaldani, A. Vazquez-Mayagoitia,
    C. Yang, H. Yang, and V. Blum
    'ELSI: A unified software interface for Kohn-Sham electronic structure solvers'
    Computer Physics Communications 222, 267-285 (2018).
    http://doi.org/10.1016/j.cpc.2017.09.007


  For the real-space grid partitioning and parallelization used in this calculation, please cite:

    Ville Havu, Volker Blum, Paula Havu, and Matthias Scheffler,
    'Efficient O(N) integration for all-electron electronic structure calculation'
    'using numerically tabulated basis functions'
    Journal of Computational Physics 228, 8367-8379 (2009).
    http://doi.org/10.1016/j.jcp.2009.08.008


  The high-level electronic structure method used in your calculation
  employed our efficient localized resolution of identity for the Coulomb operator.
  Some calculations, especially large-scale hybrid density functional theory,
  are only possible thanks to this development. For this feature, please cite:

    Arvid Ihrig, Juergen Wieferink, Igor Ying Zhang, Matti Ropo, Xinguo Ren,
    Patrick Rinke, Matthias Scheffler, and Volker Blum,
    'Accurate localized resolution of identity approach for linear-scaling
    hybrid density functionals and for many-body perturbation theory'
    New Journal of Physics 117, 093020 (2015).
    http://doi.org/10.1088/1367-2630/17/9/093020

  Of course, there are many other important community references, e.g., those cited in the
  above references. Our list is limited to references that describe implementations in the
  FHI-aims code. The reason is purely practical (length of this list) - please credit others as well.

------------------------------------------------------------
          Leaving FHI-aims.
          Date     :  20220930, Time     :  152051.850

          Computational steps:
          | Number of self-consistency cycles          :           23
          | Number of SCF (re)initializations          :            1

          Detailed time accounting                     :  max(cpu_time)    wall_clock(cpu1)
          | Total time                                  :     2422.718 s        2422.951 s
          | Preparation time                            :        1.403 s           1.406 s
          | Boundary condition initalization            :        0.786 s           0.784 s
          | Grid partitioning                           :        2.728 s           2.728 s
          | Preloading free-atom quantities on grid     :        1.672 s           1.674 s
          | Free-atom superposition energy              :        0.055 s           0.055 s
          | Total time for integrations                 :       34.680 s          34.684 s
          | Product basis setup: Total time             :      167.393 s         167.399 s
          | Total time evaluating exchange matrix       :     1977.783 s        1977.200 s
          | Total time for solution of K.-S. equations  :      106.913 s         106.913 s
          | Total time for density update               :       75.336 s          75.335 s
          | Total time for mixing                       :        0.195 s           0.195 s
          | Total time for Hartree multipole update     :        0.301 s           0.301 s
          | Total time for Hartree multipole sum        :       30.540 s          30.543 s
          | Total time for total energy evaluation      :        0.055 s           0.067 s
          | Total time for scaled ZORA corrections      :        0.000 s           0.000 s
          | Total time for vdW correction               :        5.017 s           5.018 s
          | Total time for perturbative SOC             :       15.227 s          15.227 s
          | Total time for Mulliken analysis            :        2.873 s           2.906 s

          Partial memory accounting:
          | Residual value for overall tracked memory usage across tasks:     0.000000 MB (should be 0.000000 MB)
          | Peak values for overall tracked memory usage:
          |   Minimum:      339.810 MB (on task 209 after allocating potential_shell)
          |   Maximum:      493.402 MB (on task  38 after allocating potential_shell)
          |   Average:      394.161 MB
          | Largest tracked array allocation:
          |   Minimum:       81.229 MB (soc_matrix on task   4)
          |   Maximum:      215.029 MB (ovlp3fn for atom on task 183)
          |   Average:      121.788 MB
          Note:  These values currently only include a subset of arrays which are explicitly tracked.
          The "true" memory usage will be greater.

          Have a nice day.
------------------------------------------------------------
