------------------------------------------------------------
          Invoking FHI-aims ...

          When using FHI-aims, please cite the following reference:

            Volker Blum, Ralf Gehrke, Felix Hanke, Paula Havu,
            Ville Havu, Xinguo Ren, Karsten Reuter, and Matthias Scheffler,
            'Ab Initio Molecular Simulations with Numeric Atom-Centered Orbitals',
            Computer Physics Communications 180, 2175-2196 (2009)

          In addition, many other developments in FHI-aims are likely important for
          your particular application. A partial list of references is given at the end of
          this file. Thank you for giving credit to the authors of these developments.

          For any questions about FHI-aims, please visit our slack channel at

            https://fhi-aims.slack.com

          and our main development and support site at

            https://aims-git.rz-berlin.mpg.de .

          The latter site, in particular, has a wiki to collect information, as well
          as an issue tracker to log discussions, suggest improvements, and report issues
          or bugs. https://aims-git.rz-berlin.mpg.de is also the main development site
          of the project and all new and updated code versions can be obtained there.
          Please send an email to aims-coordinators@fhi-berlin.mpg.de and we will add
          you to these sites. They are for you and everyone is welcome there.

------------------------------------------------------------



  Date     :  20220930, Time     :  143123.132
  Time zero on CPU 1             :   0.287896000000000E+00  s.
  Internal wall clock time zero  :           433780283.132  s.

  FHI-aims created a unique identifier for this run for later identification
  aims_uuid : 29D5B743-D791-4C0D-A1EA-91F18785C40C

  Build configuration of the current instance of FHI-aims
  -------------------------------------------------------
  FHI-aims version      : 220117
  Commit number         : 0c0e6afe2
  CMake host system     : Linux-5.3.18-24.99-default
  CMake version         : 3.22.0
  Fortran compiler      : /mpcdf/soft/SLE_15/packages/x86_64/intel_oneapi/2021.4/mpi/2021.4.0/bin/mpiifort (Intel) version 2021.4.0.20210910
  Fortran compiler flags: -O3 -ip -fp-model precise
  C compiler            : /mpcdf/soft/SLE_15/packages/x86_64/intel/2021.4.0/bin/icc (Intel) version 2021.4.0.20210910
  C compiler flags      : -O3 -ip -fp-model precise
  C++ compiler          : /mpcdf/soft/SLE_15/packages/x86_64/intel/2021.4.0/bin/icpc (Intel) version 2021.4.0.20210910
  C++ compiler flags    : -O3 -ip -fp-model precise
  Using MPI
  Using ScaLAPACK
  Using LibXC
  Using i-PI
  Using RLSY
  Linking against: /mpcdf/soft/SLE_15/packages/x86_64/intel_oneapi/2021.4/mkl/latest/lib/intel64/libmkl_intel_lp64.so
                   /mpcdf/soft/SLE_15/packages/x86_64/intel_oneapi/2021.4/mkl/latest/lib/intel64/libmkl_sequential.so
                   /mpcdf/soft/SLE_15/packages/x86_64/intel_oneapi/2021.4/mkl/latest/lib/intel64/libmkl_core.so
                   /mpcdf/soft/SLE_15/packages/x86_64/intel_oneapi/2021.4/mkl/latest/lib/intel64/libmkl_blacs_intelmpi_lp64.so
                   /mpcdf/soft/SLE_15/packages/x86_64/intel_oneapi/2021.4/mkl/latest/lib/intel64/libmkl_scalapack_lp64.so

  Using      288 parallel tasks.
  Task        0 on host ravg1122 reporting.
  Task        1 on host ravg1122 reporting.
  Task        2 on host ravg1122 reporting.
  Task        3 on host ravg1122 reporting.
  Task        4 on host ravg1122 reporting.
  Task        5 on host ravg1122 reporting.
  Task        6 on host ravg1122 reporting.
  Task        7 on host ravg1122 reporting.
  Task        8 on host ravg1122 reporting.
  Task        9 on host ravg1122 reporting.
  Task       10 on host ravg1122 reporting.
  Task       11 on host ravg1122 reporting.
  Task       12 on host ravg1122 reporting.
  Task       13 on host ravg1122 reporting.
  Task       14 on host ravg1122 reporting.
  Task       15 on host ravg1122 reporting.
  Task       16 on host ravg1122 reporting.
  Task       17 on host ravg1122 reporting.
  Task       18 on host ravg1122 reporting.
  Task       19 on host ravg1122 reporting.
  Task       20 on host ravg1122 reporting.
  Task       21 on host ravg1122 reporting.
  Task       22 on host ravg1122 reporting.
  Task       23 on host ravg1122 reporting.
  Task       24 on host ravg1122 reporting.
  Task       25 on host ravg1122 reporting.
  Task       26 on host ravg1122 reporting.
  Task       27 on host ravg1122 reporting.
  Task       28 on host ravg1122 reporting.
  Task       29 on host ravg1122 reporting.
  Task       30 on host ravg1122 reporting.
  Task       31 on host ravg1122 reporting.
  Task       32 on host ravg1122 reporting.
  Task       33 on host ravg1122 reporting.
  Task       34 on host ravg1122 reporting.
  Task       35 on host ravg1122 reporting.
  Task       36 on host ravg1122 reporting.
  Task       37 on host ravg1122 reporting.
  Task       38 on host ravg1122 reporting.
  Task       39 on host ravg1122 reporting.
  Task       40 on host ravg1122 reporting.
  Task       41 on host ravg1122 reporting.
  Task       42 on host ravg1122 reporting.
  Task       43 on host ravg1122 reporting.
  Task       44 on host ravg1122 reporting.
  Task       45 on host ravg1122 reporting.
  Task       46 on host ravg1122 reporting.
  Task       47 on host ravg1122 reporting.
  Task       48 on host ravg1122 reporting.
  Task       49 on host ravg1122 reporting.
  Task       50 on host ravg1122 reporting.
  Task       51 on host ravg1122 reporting.
  Task       52 on host ravg1122 reporting.
  Task       53 on host ravg1122 reporting.
  Task       54 on host ravg1122 reporting.
  Task       55 on host ravg1122 reporting.
  Task       56 on host ravg1122 reporting.
  Task       57 on host ravg1122 reporting.
  Task       58 on host ravg1122 reporting.
  Task       59 on host ravg1122 reporting.
  Task       60 on host ravg1122 reporting.
  Task       61 on host ravg1122 reporting.
  Task       62 on host ravg1122 reporting.
  Task       63 on host ravg1122 reporting.
  Task       64 on host ravg1122 reporting.
  Task       65 on host ravg1122 reporting.
  Task       66 on host ravg1122 reporting.
  Task       67 on host ravg1122 reporting.
  Task       68 on host ravg1122 reporting.
  Task       69 on host ravg1122 reporting.
  Task       70 on host ravg1122 reporting.
  Task       71 on host ravg1122 reporting.
  Task       72 on host ravg1123 reporting.
  Task       73 on host ravg1123 reporting.
  Task       74 on host ravg1123 reporting.
  Task       75 on host ravg1123 reporting.
  Task       76 on host ravg1123 reporting.
  Task       77 on host ravg1123 reporting.
  Task       78 on host ravg1123 reporting.
  Task       79 on host ravg1123 reporting.
  Task       80 on host ravg1123 reporting.
  Task       81 on host ravg1123 reporting.
  Task       82 on host ravg1123 reporting.
  Task       83 on host ravg1123 reporting.
  Task       84 on host ravg1123 reporting.
  Task       85 on host ravg1123 reporting.
  Task       86 on host ravg1123 reporting.
  Task       87 on host ravg1123 reporting.
  Task       88 on host ravg1123 reporting.
  Task       89 on host ravg1123 reporting.
  Task       90 on host ravg1123 reporting.
  Task       91 on host ravg1123 reporting.
  Task       92 on host ravg1123 reporting.
  Task       93 on host ravg1123 reporting.
  Task       94 on host ravg1123 reporting.
  Task       95 on host ravg1123 reporting.
  Task       96 on host ravg1123 reporting.
  Task       97 on host ravg1123 reporting.
  Task       98 on host ravg1123 reporting.
  Task       99 on host ravg1123 reporting.
  Task      100 on host ravg1123 reporting.
  Task      101 on host ravg1123 reporting.
  Task      102 on host ravg1123 reporting.
  Task      103 on host ravg1123 reporting.
  Task      104 on host ravg1123 reporting.
  Task      105 on host ravg1123 reporting.
  Task      106 on host ravg1123 reporting.
  Task      107 on host ravg1123 reporting.
  Task      108 on host ravg1123 reporting.
  Task      109 on host ravg1123 reporting.
  Task      110 on host ravg1123 reporting.
  Task      111 on host ravg1123 reporting.
  Task      112 on host ravg1123 reporting.
  Task      113 on host ravg1123 reporting.
  Task      114 on host ravg1123 reporting.
  Task      115 on host ravg1123 reporting.
  Task      116 on host ravg1123 reporting.
  Task      117 on host ravg1123 reporting.
  Task      118 on host ravg1123 reporting.
  Task      119 on host ravg1123 reporting.
  Task      120 on host ravg1123 reporting.
  Task      121 on host ravg1123 reporting.
  Task      122 on host ravg1123 reporting.
  Task      123 on host ravg1123 reporting.
  Task      124 on host ravg1123 reporting.
  Task      125 on host ravg1123 reporting.
  Task      126 on host ravg1123 reporting.
  Task      127 on host ravg1123 reporting.
  Task      128 on host ravg1123 reporting.
  Task      129 on host ravg1123 reporting.
  Task      130 on host ravg1123 reporting.
  Task      131 on host ravg1123 reporting.
  Task      132 on host ravg1123 reporting.
  Task      133 on host ravg1123 reporting.
  Task      134 on host ravg1123 reporting.
  Task      135 on host ravg1123 reporting.
  Task      136 on host ravg1123 reporting.
  Task      137 on host ravg1123 reporting.
  Task      138 on host ravg1123 reporting.
  Task      139 on host ravg1123 reporting.
  Task      140 on host ravg1123 reporting.
  Task      141 on host ravg1123 reporting.
  Task      142 on host ravg1123 reporting.
  Task      143 on host ravg1123 reporting.
  Task      144 on host ravg1124 reporting.
  Task      145 on host ravg1124 reporting.
  Task      146 on host ravg1124 reporting.
  Task      147 on host ravg1124 reporting.
  Task      148 on host ravg1124 reporting.
  Task      149 on host ravg1124 reporting.
  Task      150 on host ravg1124 reporting.
  Task      151 on host ravg1124 reporting.
  Task      152 on host ravg1124 reporting.
  Task      153 on host ravg1124 reporting.
  Task      154 on host ravg1124 reporting.
  Task      155 on host ravg1124 reporting.
  Task      156 on host ravg1124 reporting.
  Task      157 on host ravg1124 reporting.
  Task      158 on host ravg1124 reporting.
  Task      159 on host ravg1124 reporting.
  Task      160 on host ravg1124 reporting.
  Task      161 on host ravg1124 reporting.
  Task      162 on host ravg1124 reporting.
  Task      163 on host ravg1124 reporting.
  Task      164 on host ravg1124 reporting.
  Task      165 on host ravg1124 reporting.
  Task      166 on host ravg1124 reporting.
  Task      167 on host ravg1124 reporting.
  Task      168 on host ravg1124 reporting.
  Task      169 on host ravg1124 reporting.
  Task      170 on host ravg1124 reporting.
  Task      171 on host ravg1124 reporting.
  Task      172 on host ravg1124 reporting.
  Task      173 on host ravg1124 reporting.
  Task      174 on host ravg1124 reporting.
  Task      175 on host ravg1124 reporting.
  Task      176 on host ravg1124 reporting.
  Task      177 on host ravg1124 reporting.
  Task      178 on host ravg1124 reporting.
  Task      179 on host ravg1124 reporting.
  Task      180 on host ravg1124 reporting.
  Task      181 on host ravg1124 reporting.
  Task      182 on host ravg1124 reporting.
  Task      183 on host ravg1124 reporting.
  Task      184 on host ravg1124 reporting.
  Task      185 on host ravg1124 reporting.
  Task      186 on host ravg1124 reporting.
  Task      187 on host ravg1124 reporting.
  Task      188 on host ravg1124 reporting.
  Task      189 on host ravg1124 reporting.
  Task      190 on host ravg1124 reporting.
  Task      191 on host ravg1124 reporting.
  Task      192 on host ravg1124 reporting.
  Task      193 on host ravg1124 reporting.
  Task      194 on host ravg1124 reporting.
  Task      195 on host ravg1124 reporting.
  Task      196 on host ravg1124 reporting.
  Task      197 on host ravg1124 reporting.
  Task      198 on host ravg1124 reporting.
  Task      199 on host ravg1124 reporting.
  Task      200 on host ravg1124 reporting.
  Task      201 on host ravg1124 reporting.
  Task      202 on host ravg1124 reporting.
  Task      203 on host ravg1124 reporting.
  Task      204 on host ravg1124 reporting.
  Task      205 on host ravg1124 reporting.
  Task      206 on host ravg1124 reporting.
  Task      207 on host ravg1124 reporting.
  Task      208 on host ravg1124 reporting.
  Task      209 on host ravg1124 reporting.
  Task      210 on host ravg1124 reporting.
  Task      211 on host ravg1124 reporting.
  Task      212 on host ravg1124 reporting.
  Task      213 on host ravg1124 reporting.
  Task      214 on host ravg1124 reporting.
  Task      215 on host ravg1124 reporting.
  Task      216 on host ravg1127 reporting.
  Task      217 on host ravg1127 reporting.
  Task      218 on host ravg1127 reporting.
  Task      219 on host ravg1127 reporting.
  Task      220 on host ravg1127 reporting.
  Task      221 on host ravg1127 reporting.
  Task      222 on host ravg1127 reporting.
  Task      223 on host ravg1127 reporting.
  Task      224 on host ravg1127 reporting.
  Task      225 on host ravg1127 reporting.
  Task      226 on host ravg1127 reporting.
  Task      227 on host ravg1127 reporting.
  Task      228 on host ravg1127 reporting.
  Task      229 on host ravg1127 reporting.
  Task      230 on host ravg1127 reporting.
  Task      231 on host ravg1127 reporting.
  Task      232 on host ravg1127 reporting.
  Task      233 on host ravg1127 reporting.
  Task      234 on host ravg1127 reporting.
  Task      235 on host ravg1127 reporting.
  Task      236 on host ravg1127 reporting.
  Task      237 on host ravg1127 reporting.
  Task      238 on host ravg1127 reporting.
  Task      239 on host ravg1127 reporting.
  Task      240 on host ravg1127 reporting.
  Task      241 on host ravg1127 reporting.
  Task      242 on host ravg1127 reporting.
  Task      243 on host ravg1127 reporting.
  Task      244 on host ravg1127 reporting.
  Task      245 on host ravg1127 reporting.
  Task      246 on host ravg1127 reporting.
  Task      247 on host ravg1127 reporting.
  Task      248 on host ravg1127 reporting.
  Task      249 on host ravg1127 reporting.
  Task      250 on host ravg1127 reporting.
  Task      251 on host ravg1127 reporting.
  Task      252 on host ravg1127 reporting.
  Task      253 on host ravg1127 reporting.
  Task      254 on host ravg1127 reporting.
  Task      255 on host ravg1127 reporting.
  Task      256 on host ravg1127 reporting.
  Task      257 on host ravg1127 reporting.
  Task      258 on host ravg1127 reporting.
  Task      259 on host ravg1127 reporting.
  Task      260 on host ravg1127 reporting.
  Task      261 on host ravg1127 reporting.
  Task      262 on host ravg1127 reporting.
  Task      263 on host ravg1127 reporting.
  Task      264 on host ravg1127 reporting.
  Task      265 on host ravg1127 reporting.
  Task      266 on host ravg1127 reporting.
  Task      267 on host ravg1127 reporting.
  Task      268 on host ravg1127 reporting.
  Task      269 on host ravg1127 reporting.
  Task      270 on host ravg1127 reporting.
  Task      271 on host ravg1127 reporting.
  Task      272 on host ravg1127 reporting.
  Task      273 on host ravg1127 reporting.
  Task      274 on host ravg1127 reporting.
  Task      275 on host ravg1127 reporting.
  Task      276 on host ravg1127 reporting.
  Task      277 on host ravg1127 reporting.
  Task      278 on host ravg1127 reporting.
  Task      279 on host ravg1127 reporting.
  Task      280 on host ravg1127 reporting.
  Task      281 on host ravg1127 reporting.
  Task      282 on host ravg1127 reporting.
  Task      283 on host ravg1127 reporting.
  Task      284 on host ravg1127 reporting.
  Task      285 on host ravg1127 reporting.
  Task      286 on host ravg1127 reporting.
  Task      287 on host ravg1127 reporting.

  Performing system and environment tests:
  | Environment variable OMP_NUM_THREADS correctly set to 1.
  | Checking for ScaLAPACK...
  | Testing pdtran()...
  | All pdtran() tests passed.

  Obtaining array dimensions for all initial allocations:
  
  -----------------------------------------------------------------------
  Parsing control.in (first pass over file, find array dimensions only).
  The contents of control.in will be repeated verbatim below
  unless switched off by setting 'verbatim_writeout .false.' .
  in the first line of control.in .
  -----------------------------------------------------------------------
  
    ##### Physical settings  ################
    xc                 pbe
    spin               collinear
    default_initial_moment 1
    charge      0.0
    relativistic       atomic_zora scalar
   # elsi_restart read
    # SCF settings
    use_symmetric_forces .true.
      relax_geometry trm 1E-3
  #  relax_geometry trm 1E-3
   output dos_tetrahedron -10 0 2001 0.1
  output species_proj_dos_tetrahedron -10 0 2001 0.1
  
    # k-grid settings  (to be adjusted)
    k_grid  4 4 1
    #empty_states 8
    use_dipole_correction
    many_body_dispersion_nl    beta=0.81
  ################################################################################
  #
  #  FHI-aims code project
  # Volker Blum, Fritz Haber Institute Berlin, 2009
  #
  #  Suggested "tight" defaults for S atom (to be pasted into control.in file)
  #
  #  Revised Jan 04, 2011, following tests (SiC) done by Lydia Nemec:
  #     d and g functions of tier 2 now enabled by default.
  #
  ################################################################################
    species        S
  #     global species definitions
      nucleus             16
      mass                32.065
  #
      l_hartree           6
  #
      cut_pot             4.0          2.0  1.0
      basis_dep_cutoff    1e-4
  #
      radial_base         44 7.0
      radial_multiplier   2
      angular_grids       specified
        division   0.4665  110
        division   0.5810  194
        division   0.7139  302
        division   0.8274  434
  #      division   0.9105  590
  #      division   1.0975  770
  #      division   1.2028  974
  #      outer_grid  974
        outer_grid  434
  ################################################################################
  #
  #  Definition of "minimal" basis
  #
  ################################################################################
  #     valence basis states
      valence      3  s   2.
      valence      3  p   4.
  #     ion occupancy
      ion_occ      3  s   1.
      ion_occ      3  p   3.
  ################################################################################
  #
  #  Suggested additional basis functions. For production calculations,
  #  uncomment them one after another (the most important basis functions are
  #  listed first).
  #
  #  Constructed for dimers: 1.6 A, 1.9 A, 2.5 A, 3.25 A, 4.0 A
  #
  ################################################################################
  #  "First tier" - improvements: -652.81 meV to -45.53 meV
       ionic 3 d auto
       hydro 2 p 1.8
       hydro 4 f 7
       ionic 3 s auto
  #  "Second tier" - improvements: -30.20 meV to -1.74 meV
       hydro 4 d 6.2
       hydro 5 g 10.8
  #     hydro 4 p 4.9
  #     hydro 5 f 10
  #     hydro 1 s 0.8
  #  "Third tier" - improvements: -1.04 meV to -0.20 meV
  #     hydro 3 d 3.9
  #     hydro 3 d 2.7
  #     hydro 5 g 12
  #     hydro 4 p 10.4
  #     hydro 5 f 12.4
  #     hydro 2 s 1.9
  #  "Fourth tier" - improvements: -0.35 meV to -0.06 meV
  #     hydro 4 d 10.4
  #     hydro 4 p 7.2
  #     hydro 4 d 10
  #     hydro 5 g 19.2
  #     hydro 4 s 12
  
  ################################################################################
  #
  # For methods that use the localized form of the "resolution of identity" for
  # the two-electron Coulomb operator (RI_method LVL), particularly Hartree-Fock and
  # hybrid density functional calculations, the highest accuracy can be obtained by
  # uncommenting the line beginning with "for_aux"  below, thus adding an extra g radial
  # function to the construction of the product basis set for the expansion.
  # See Ref. New J. Phys. 17, 093020 (2015) for more information, particularly Figs. 1 and 6.
  #
  ################################################################################
  #
  # for_aux hydro 5 g 6.0
  ################################################################################
  #
  #  FHI-aims code project
  # Volker Blum, Fritz Haber Institute Berlin, 2009
  #
  #  Suggested "tight" defaults for Mo atom (to be pasted into control.in file)
  #
  ################################################################################
    species        Mo
  #     global species definitions
      nucleus             42
      mass                95.94
  #
      l_hartree           6
  #
      cut_pot             4.0  2.0  1.0
      basis_dep_cutoff    1e-4
  #
      radial_base         59 7.0
      radial_multiplier   2
      angular_grids specified
        division   0.3117   50
        division   0.6750  110
        division   1.0351  194
        division   1.2073  302
        division   1.6402  434
  #      division   1.9185  590
  #      division   2.0237  770
  #      division   2.0980  974
  #      division   2.7972 1202
  #      outer_grid  974
        outer_grid  434
  ################################################################################
  #
  #  Definition of "minimal" basis
  #
  ################################################################################
  #     valence basis states
      valence      5  s   1.
      valence      4  p   6.
      valence      4  d   5.
  #     ion occupancy
      ion_occ     5  s   0.
      ion_occ     4  p   6.
      ion_occ     4  d   4.
  ################################################################################
  #
  #  Suggested additional basis functions. For production calculations,
  #  uncomment them one after another (the most important basis functions are
  #  listed first).
  #
  #  Constructed for dimers: 1.675 A, 1.9 A, 2.375 A, 3.00 A, 4.00 A
  #
  ################################################################################
  #  "First tier"  - max. impr. -711.23  meV, min. impr. -21.07 meV
       hydro 4 f 8.4
       hydro 3 d 2.8
       ionic 5 p auto
       hydro 5 g 12
       ionic 5 s auto
  #  "Second tier" - max. impr. -39.38  meV, min. impr. -2.68 meV
  #     hydro 4 f 12.4
  #     hydro 3 d 3.3
  #     hydro 6 h 17.2
  #     hydro 4 f 7.6
  #     hydro 3 p 3.0
  #     hydro 1 s 0.65
  #  "Third tier"  - max. impr. -5.50 meV, min. impr. -0.47 meV
  #     hydro 4 f 29.2
  #     hydro 5 g 11.2
  #     hydro 3 d 6.8
  #     hydro 6 h 14.8
  #     hydro 2 p 2.3
  #     hydro 4 s 3.8
  #  "Fourth tier"  - max. impr. -0.58 meV, min. impr. -0.19 meV
  #     hydro 5 f 6.8
  #     hydro 5 d 14.8
  #     hydro 6 s 7.8
  #     hydro 5 g 20.8
  #     hydro 5 d 10.4
  #     hydro 5 p 9.8
  #  Further functions - -0.17 meV and below
  #     hydro 5 d 3.2
  ################################################################################
  #
  #  FHI-aims code project
  # Volker Blum, Fritz Haber Institute Berlin, 2009
  #
  #  Suggested "tight" defaults for W atom (to be pasted into control.in file)
  #
  ################################################################################
    species          W
  #     global species definitions
      nucleus        74
      mass           183.84
  #
      l_hartree      6
  #
      cut_pot        4.0  2.0  1.0
      basis_dep_cutoff    1e-4
  #
      radial_base    71  7.0
      radial_multiplier  2
      angular_grids specified
        division   0.2901   50
        division   0.6986  110
        division   1.0528  194
        division   1.2659  302
        division   1.5223  434
  #      division   1.8111  590
  #      division   2.0105  770
  #      division   2.0413  974
  #      division   2.8804 1202
  #      outer_grid  974
        outer_grid  434
  ################################################################################
  #
  #  Definition of "minimal" basis
  #
  ################################################################################
  #     valence basis states
      valence      6  s   2.
      valence      5  p   6.
      valence      5  d   4.
      valence      4  f  14.
  #     ion occupancy
      ion_occ      6  s   1.
      ion_occ      5  p   6.
      ion_occ      5  d   3.
      ion_occ      4  f  14.
  ################################################################################
  #
  #  Suggested additional basis functions. For production calculations,
  #  uncomment them one after another (the most important basis functions are
  #  listed first).
  #
  #  Constructed for dimers: 1.775, 1.99, 2.50, 3.25, 4.50 AA
  #
  ################################################################################
  #
  #  "First tier" - improvements: -603.77 meV to -28.99 meV
       hydro 4 f 7.8
       hydro 4 d 5.8
       ionic 6 p auto
       hydro 5 g 12.4
       ionic 6 s auto
  #  "Second tier" - improvements: -28.30 meV to -1.31 meV
  #     hydro 6 h 16.8
  #     ionic 5 d auto
  #     hydro 4 f 8.6
  #     hydro 5 g 16.8
  #     hydro 5 d 8.4
  #     hydro 3 p 3.3
  #     hydro 1 s 0.55
  #  "Third tier" - max. impr. -1.79 meV, min. impr. -0.26 meV
  #     hydro 5 f 10.8
  #     hydro 5 g 34.4
  #     hydro 6 h 20.8
  #     hydro 5 g 12.8
  #     hydro 2 p 1.6
  #     hydro 4 s 4.7
  #     hydro 6 d 18.4
  #  "Fourth tier" -0.46 max. impr. - meV, min. impr. -0.09 meV
  #     hydro 6 h 21.6
  #     hydro 5 f 22.4
  #     hydro 4 f 4
  #     hydro 5 p 9.6
  #     hydro 6 d 17.2
  #     hydro 3 p 5.2
  #     hydro 5 g 4.7
  #     hydro 6 s 7.6
  ################################################################################
  #
  #  FHI-aims code project
  # Volker Blum, Fritz Haber Institute Berlin, 2009
  #
  #  Suggested "tight" defaults for Se atom (to be pasted into control.in file)
  #
  ################################################################################
    species        Se
  #     global species definitions
      nucleus             34
      mass                78.96
  #
      l_hartree           6
  #
      cut_pot             4.0          2.0  1.0
      basis_dep_cutoff    1e-4
  #
      radial_base         55 7.0
      radial_multiplier   2
      angular_grids       specified
        division   0.0830  110
        division   0.1357  194
        division   0.7377  302
        division   0.8610  434
  #      division   0.9640  590
  #      division   1.0773  770
  #      division   2.5539  974
  #      outer_grid  974
        outer_grid  434
  ################################################################################
  #
  #  Definition of "minimal" basis
  #
  ################################################################################
  #     valence basis states
      valence      4  s   2.
      valence      4  p   4.
      valence      3  d  10.
  #     ion occupancy
      ion_occ      4  s   1.
      ion_occ      4  p   3.
      ion_occ      3  d  10.
  ################################################################################
  #
  #  Suggested additional basis functions. For production calculations,
  #  uncomment them one after another (the most important basis functions are
  #  listed first).
  #
  #  Constructed for dimers: 1.85 A, 2.15 A, 2.50 A, 3.00 A, 4.00 A
  #
  ################################################################################
  #  "First tier" - improvements: -336.21 meV to -36.85 meV
       hydro 3 d 4.3
       hydro 2 p 1.6
       hydro 4 f 7.2
       ionic 4 s auto
  #  "Second tier" - improvements: -14.39 meV to -1.49 meV
  #     hydro 5 g 10.4
  #     hydro 4 p 4.5
  #     hydro 4 d 6.2
  #     hydro 4 f 11.2
  #     hydro 1 s 0.65
  #     hydro 6 h 15.2
  #  "Third tier" - improvements: -0.46 meV and below
  #     hydro 5 g 14.4
  #     ionic 4 d auto
  #     hydro 4 f 22.4
  #     hydro 5 f 7.4
  #     hydro 5 p 8
  #     hydro 5 s 9.4
  #  "Fourth tier" - improvements: -0.12 meV and below
  #     hydro 5 d 11.6
  #     hydro 6 h 18
  #     hydro 4 p 4
  #     hydro 5 f 16
  #     hydro 4 s 3.9
  
  
  
  -----------------------------------------------------------------------
  Completed first pass over input file control.in .
  -----------------------------------------------------------------------
  
  
  -----------------------------------------------------------------------
  Parsing geometry.in (first pass over file, find array dimensions only).
  The contents of geometry.in will be repeated verbatim below
  unless switched off by setting 'verbatim_writeout .false.' .
  in the first line of geometry.in .
  -----------------------------------------------------------------------
  
  #
  # This is the geometry file that corresponds to the current relaxation step.
  # If you do not want this file to be written, set the "write_restart_geometry" flag to .false.
  #  aims_uuid : AF778052-76BD-4866-A448-6B4497147023
  #
    set_vacuum_level        53.413254
  lattice_vector     16.41708800      0.00000000      0.00000000
  lattice_vector     -8.21125790     14.21583190      0.00000000
  lattice_vector      0.00000000      0.00000000     99.89650741
  atom       0.04925952      1.02871773      2.65751373 Mo
  atom       1.69149218      1.97671247      4.33405519 Se
  atom       1.69241049      1.97726638      0.98171230 Se
  atom      -1.59200004      3.87143549      2.65995027 Mo
  atom       0.04798731      4.81859737      4.34029240 Se
  atom       0.04577095      4.82251954      0.98108047 Se
  atom      -3.23283817      6.71435928      2.66317544 Mo
  atom      -1.59267757      7.66274337      4.34344043 Se
  atom      -1.59265703      7.66473750      0.98535997 Se
  atom      -4.87690456      9.56063415      2.66321219 Mo
  atom      -3.23536550     10.50671009      4.34346850 Se
  atom      -3.23364914     10.50568074      0.98535662 Se
  atom      -6.51966981     12.40243845      2.66000605 Mo
  atom      -4.87925717     13.34896459      4.34032295 Se
  atom      -4.87703692     13.34507257      0.98109081 Se
  atom       3.33726894      1.02437357      2.65737377 Mo
  atom       4.96910154      1.97662965      4.34132278 Se
  atom       4.97103157      1.96115999      0.96493703 Se
  atom       1.68897949      3.87801571      2.65739775 Mo
  atom       3.32969686      4.81487961      4.34137470 Se
  atom       3.31724235      4.82438242      0.96499221 Se
  atom       0.04770479      6.71438298      2.66320336 Mo
  atom       1.69662514      7.65989072      4.33773895 Se
  atom       1.69050594      7.66344674      0.98699698 Se
  atom      -1.59312072      9.55876704      2.66520453 Mo
  atom       0.04897451     10.50674509      4.34348078 Se
  atom       0.04725915     10.50569449      0.98533409 Se
  atom      -3.23716976     12.40133017      2.66316270 Mo
  atom      -1.59370997     13.35640585      4.33767291 Se
  atom      -1.59373099     13.34923945      0.98692600 Se
  atom       6.61705291      1.03865890      2.65765853 Mo
  atom       8.26488115      1.97660107      4.34124149 Se
  atom       8.26290534      1.96112425      0.96488515 Se
  atom       4.93091332      3.84710962      2.64393959 Mo
  atom       6.61648173      4.81999944      4.23672601 Se
  atom       6.61662717      4.81963845      6.49112297 Se
  atom       6.61643624      4.82009925      1.00715594 Se
  atom       3.34071506      6.71090605      2.65776815 Mo
  atom       4.97701517      7.66874175      4.34138932 Se
  atom       4.96261393      7.67479946      0.96507390 Se
  atom       1.69066492      9.56064361      2.66319547 Mo
  atom       3.33241487     10.50858836      4.34035358 Se
  atom       3.32793968     10.50852796      0.98110469 Se
  atom       0.04986386     12.40129749      2.66313014 Mo
  atom       1.69177387     13.34896728      4.34027813 Se
  atom       1.68954771     13.34504030      0.98102332 Se
  atom       9.89687061      1.02436777      2.65730608 Mo
  atom      11.54248690      1.97671254      4.33396642 Se
  atom      11.54159150      1.97725319      0.98164567 Se
  atom       8.30220442      3.84704237      2.64388931 Mo
  atom       9.90320827      4.81487603      4.34128954 Se
  atom       9.91565971      4.82438193      0.96492181 Se
  atom       6.61593642      6.76621978      2.64403780 Mo
  atom       8.25477044      7.66871226      4.34138554 Se
  atom       8.26914375      7.67480784      0.96504451 Se
  atom       4.96766490      9.55811310      2.65744857 Mo
  atom       6.61535445     10.50685831      4.33413061 Se
  atom       6.61535783     10.50575188      0.98178317 Se
  atom       3.33235787     12.40241690      2.65996929 Mo
  atom       4.97430185     13.35033718      4.33739916 Se
  atom       4.97269068     13.34933399      0.97923955 Se
  atom      13.18486870      1.02869136      2.65747494 Mo
  atom      14.82551355      1.97553135      4.33741027 Se
  atom      14.82554397      1.97742326      0.97918463 Se
  atom      11.54404215      3.87802962      2.65733252 Mo
  atom      13.18486455      4.81859390      4.34027613 Se
  atom      13.18712786      4.82253868      0.98102218 Se
  atom       9.89125581      6.71089358      2.65774278 Mo
  atom      11.53516829      7.65986663      4.33771772 Se
  atom      11.54129583      7.66346263      0.98695576 Se
  atom       8.26320105      9.55808927      2.65746254 Mo
  atom       9.89827421     10.50858972      4.34037478 Se
  atom       9.90275624     10.50855629      0.98111888 Se
  atom       6.61489107     12.40304458      2.65755946 Mo
  atom       8.25529377     13.35032773      4.33743055 Se
  atom       8.25693303     13.34933907      0.97927758 Se
  #
  # What follows is the current estimated Hessian matrix constructed by the BFGS algorithm.
  # This is NOT the true Hessian matrix of the system.
  # If you do not want this information here, switch it off using the "hessian_to_restart_geometry" keyword.
  #
  
  -----------------------------------------------------------------------
  Completed first pass over input file geometry.in .
  -----------------------------------------------------------------------
  

  Basic array size parameters:
  | Number of species                 :        4
  | Number of atoms                   :       76
  | Number of lattice vectors         :        3
  | Max. basis fn. angular momentum   :        4
  | Max. atomic/ionic basis occupied n:        6
  | Max. number of basis fn. types    :        3
  | Max. radial fns per species/type  :       14
  | Max. logarithmic grid size        :     1483
  | Max. radial integration grid size :      143
  | Max. angular integration grid size:      434
  | Max. angular grid division number :        8
  | Radial grid for Hartree potential :     1483
  | Number of spin channels           :        2

------------------------------------------------------------
          Reading file control.in.
------------------------------------------------------------
  XC: Using PBE gradient-corrected functionals.
  Spin treatment: Spin density functional theory - collinear spins.
  Initial spin moment per atom:   1.0000
  Charge =   0.000000E+00: Neutral system requested explicitly.
  Scalar relativistic treatment of kinetic energy: on-site free-atom approximation to ZORA.
  Geometry relaxation: Modified BFGS - TRM (trust radius method) for lattice optimization.
  Convergence accuracy for geometry relaxation: Maximum force <   0.100000E-02 eV/A.
  Calculating density of states with
  | energy interval :-10.000000  0.000000
  | points & tetrahedron method :  2001
  Calculating angular-momentum projected DOS with 
  | energy interval :-10.000000  0.000000
  | points & tetrahedron :  2001
  Found k-point grid:         4         4         1
  Using dipole correction.
  Using libMBD for calculating MBD and TS energies
 
  Reading configuration options for species S                   .
  | Found nuclear charge :  16.0000
  | Found atomic mass :    32.0650000000000      amu
  | Found l_max for Hartree potential  :   6
  | Found cutoff potl. onset [A], width [A], scale factor :    4.00000    2.00000    1.00000
  | Threshold for basis-dependent cutoff potential is   0.100000E-03
  | Found data for basic radial integration grid :    44 points, outermost radius =    7.000 A
  | Found multiplier for basic radial grid :   2
  | Found angular grid specification: user-specified.
  | Specified grid contains     5 separate shells.
  | Check grid settings after all constraints further below.
  | Found free-atom valence shell :  3 s   2.000
  | Found free-atom valence shell :  3 p   4.000
  | Found free-ion valence shell :  3 s   1.000
  | Found free-ion valence shell :  3 p   3.000
  | Found ionic basis function :  3 d , default cutoff radius.
  | Found hydrogenic basis function :  2 p   1.800
  | Found hydrogenic basis function :  4 f   7.000
  | Found ionic basis function :  3 s , default cutoff radius.
  | Found hydrogenic basis function :  4 d   6.200
  | Found hydrogenic basis function :  5 g  10.800
  Species S                   : Missing cutoff potential type.
  Defaulting to exp(1/x)/(1-x)^2 type cutoff potential.
  Species S : No 'logarithmic' tag. Using default grid for free atom:
  | Default logarithmic grid data [bohr] : 0.1000E-03 0.1000E+03 0.1012E+01
  | Will include ionic basis functions of  2.0-fold positive S                    ion.
  Species S : On-site basis accuracy parameter (for Gram-Schmidt orthonormalisation) not specified.
  Using default value basis_acc =  0.1000000E-03.
  Species S                   : Using default innermost maximum threshold i_radial=  2 for radial functions.
  Species S                   : Default cutoff onset for free atom density etc. : 0.40000000E+01 AA.
  Species S                   : Basic radial grid will be enhanced according to radial_multiplier =   2, to contain    89 grid points.
 
  Reading configuration options for species Mo                  .
  | Found nuclear charge :  42.0000
  | Found atomic mass :    95.9400000000000      amu
  | Found l_max for Hartree potential  :   6
  | Found cutoff potl. onset [A], width [A], scale factor :    4.00000    2.00000    1.00000
  | Threshold for basis-dependent cutoff potential is   0.100000E-03
  | Found data for basic radial integration grid :    59 points, outermost radius =    7.000 A
  | Found multiplier for basic radial grid :   2
  | Found angular grid specification: user-specified.
  | Specified grid contains     6 separate shells.
  | Check grid settings after all constraints further below.
  | Found free-atom valence shell :  5 s   1.000
  | Found free-atom valence shell :  4 p   6.000
  | Found free-atom valence shell :  4 d   5.000
  | Found free-ion valence shell :  5 s   0.000
  | Found free-ion valence shell :  4 p   6.000
  | Found free-ion valence shell :  4 d   4.000
  | Found hydrogenic basis function :  4 f   8.400
  | Found hydrogenic basis function :  3 d   2.800
  | Found ionic basis function :  5 p , default cutoff radius.
  | Found hydrogenic basis function :  5 g  12.000
  | Found ionic basis function :  5 s , default cutoff radius.
  Species Mo                  : Missing cutoff potential type.
  Defaulting to exp(1/x)/(1-x)^2 type cutoff potential.
  Species Mo: No 'logarithmic' tag. Using default grid for free atom:
  | Default logarithmic grid data [bohr] : 0.1000E-03 0.1000E+03 0.1012E+01
  | Will include ionic basis functions of  2.0-fold positive Mo                   ion.
  Species Mo: On-site basis accuracy parameter (for Gram-Schmidt orthonormalisation) not specified.
  Using default value basis_acc =  0.1000000E-03.
  Species Mo                  : Using default innermost maximum threshold i_radial=  2 for radial functions.
  Species Mo                  : Default cutoff onset for free atom density etc. : 0.40000000E+01 AA.
  Species Mo                  : Basic radial grid will be enhanced according to radial_multiplier =   2, to contain   119 grid points.
 
  Reading configuration options for species W                   .
  | Found nuclear charge :  74.0000
  | Found atomic mass :    183.840000000000      amu
  | Found l_max for Hartree potential  :   6
  | Found cutoff potl. onset [A], width [A], scale factor :    4.00000    2.00000    1.00000
  | Threshold for basis-dependent cutoff potential is   0.100000E-03
  | Found data for basic radial integration grid :    71 points, outermost radius =    7.000 A
  | Found multiplier for basic radial grid :   2
  | Found angular grid specification: user-specified.
  | Specified grid contains     6 separate shells.
  | Check grid settings after all constraints further below.
  | Found free-atom valence shell :  6 s   2.000
  | Found free-atom valence shell :  5 p   6.000
  | Found free-atom valence shell :  5 d   4.000
  | Found free-atom valence shell :  4 f  14.000
  | Found free-ion valence shell :  6 s   1.000
  | Found free-ion valence shell :  5 p   6.000
  | Found free-ion valence shell :  5 d   3.000
  | Found free-ion valence shell :  4 f  14.000
  | Found hydrogenic basis function :  4 f   7.800
  | Found hydrogenic basis function :  4 d   5.800
  | Found ionic basis function :  6 p , default cutoff radius.
  | Found hydrogenic basis function :  5 g  12.400
  | Found ionic basis function :  6 s , default cutoff radius.
  Species W                   : Missing cutoff potential type.
  Defaulting to exp(1/x)/(1-x)^2 type cutoff potential.
  Species W : No 'logarithmic' tag. Using default grid for free atom:
  | Default logarithmic grid data [bohr] : 0.1000E-03 0.1000E+03 0.1012E+01
  | Will include ionic basis functions of  2.0-fold positive W                    ion.
  Species W : On-site basis accuracy parameter (for Gram-Schmidt orthonormalisation) not specified.
  Using default value basis_acc =  0.1000000E-03.
  Species W                   : Using default innermost maximum threshold i_radial=  2 for radial functions.
  Species W                   : Default cutoff onset for free atom density etc. : 0.40000000E+01 AA.
  Species W                   : Basic radial grid will be enhanced according to radial_multiplier =   2, to contain   143 grid points.
 
  Reading configuration options for species Se                  .
  | Found nuclear charge :  34.0000
  | Found atomic mass :    78.9600000000000      amu
  | Found l_max for Hartree potential  :   6
  | Found cutoff potl. onset [A], width [A], scale factor :    4.00000    2.00000    1.00000
  | Threshold for basis-dependent cutoff potential is   0.100000E-03
  | Found data for basic radial integration grid :    55 points, outermost radius =    7.000 A
  | Found multiplier for basic radial grid :   2
  | Found angular grid specification: user-specified.
  | Specified grid contains     5 separate shells.
  | Check grid settings after all constraints further below.
  | Found free-atom valence shell :  4 s   2.000
  | Found free-atom valence shell :  4 p   4.000
  | Found free-atom valence shell :  3 d  10.000
  | Found free-ion valence shell :  4 s   1.000
  | Found free-ion valence shell :  4 p   3.000
  | Found free-ion valence shell :  3 d  10.000
  | Found hydrogenic basis function :  3 d   4.300
  | Found hydrogenic basis function :  2 p   1.600
  | Found hydrogenic basis function :  4 f   7.200
  | Found ionic basis function :  4 s , default cutoff radius.
  Species Se                  : Missing cutoff potential type.
  Defaulting to exp(1/x)/(1-x)^2 type cutoff potential.
  Species Se: No 'logarithmic' tag. Using default grid for free atom:
  | Default logarithmic grid data [bohr] : 0.1000E-03 0.1000E+03 0.1012E+01
  | Will include ionic basis functions of  2.0-fold positive Se                   ion.
  Species Se: On-site basis accuracy parameter (for Gram-Schmidt orthonormalisation) not specified.
  Using default value basis_acc =  0.1000000E-03.
  Species Se                  : Using default innermost maximum threshold i_radial=  2 for radial functions.
  Species Se                  : Default cutoff onset for free atom density etc. : 0.40000000E+01 AA.
  Species Se                  : Basic radial grid will be enhanced according to radial_multiplier =   2, to contain   111 grid points.
 
  Finished reading input file 'control.in'.
 
------------------------------------------------------------


------------------------------------------------------------
          Reading geometry description geometry.in.
------------------------------------------------------------
  Vacuum level in z-axis :   0.534133E+02
  | The smallest distance between any two atoms is         2.25439699 AA.
  | The first atom of this pair is atom number                     35 .
  | The second atom of this pair is atom number                    36 .
  | Wigner-Seitz cell of the first atom image           0     0     0 .
  | (The Wigner-Seitz cell of the second atom is 0 0 0  by definition.)

  Symmetry information by spglib:
  | Precision set to  0.1E-04
  | Number of Operations  : 1
  | Space group           : 1
  | International         : P1 V
  | Schoenflies           : C1^1
  Input structure read successfully.
  The structure contains       76 atoms,  and a total of       2784.000 electrons.

  Input geometry:
  | Unit cell:
  |       16.41708800        0.00000000        0.00000000
  |       -8.21125790       14.21583190        0.00000000
  |        0.00000000        0.00000000       99.89650741
  | Atomic structure:
  |       Atom                x [A]            y [A]            z [A]
  |    1: Species Mo            0.04925952        1.02871773        2.65751373
  |    2: Species Se            1.69149218        1.97671247        4.33405519
  |    3: Species Se            1.69241049        1.97726638        0.98171230
  |    4: Species Mo           -1.59200004        3.87143549        2.65995027
  |    5: Species Se            0.04798731        4.81859737        4.34029240
  |    6: Species Se            0.04577095        4.82251954        0.98108047
  |    7: Species Mo           -3.23283817        6.71435928        2.66317544
  |    8: Species Se           -1.59267757        7.66274337        4.34344043
  |    9: Species Se           -1.59265703        7.66473750        0.98535997
  |   10: Species Mo           -4.87690456        9.56063415        2.66321219
  |   11: Species Se           -3.23536550       10.50671009        4.34346850
  |   12: Species Se           -3.23364914       10.50568074        0.98535662
  |   13: Species Mo           -6.51966981       12.40243845        2.66000605
  |   14: Species Se           -4.87925717       13.34896459        4.34032295
  |   15: Species Se           -4.87703692       13.34507257        0.98109081
  |   16: Species Mo            3.33726894        1.02437357        2.65737377
  |   17: Species Se            4.96910154        1.97662965        4.34132278
  |   18: Species Se            4.97103157        1.96115999        0.96493703
  |   19: Species Mo            1.68897949        3.87801571        2.65739775
  |   20: Species Se            3.32969686        4.81487961        4.34137470
  |   21: Species Se            3.31724235        4.82438242        0.96499221
  |   22: Species Mo            0.04770479        6.71438298        2.66320336
  |   23: Species Se            1.69662514        7.65989072        4.33773895
  |   24: Species Se            1.69050594        7.66344674        0.98699698
  |   25: Species Mo           -1.59312072        9.55876704        2.66520453
  |   26: Species Se            0.04897451       10.50674509        4.34348078
  |   27: Species Se            0.04725915       10.50569449        0.98533409
  |   28: Species Mo           -3.23716976       12.40133017        2.66316270
  |   29: Species Se           -1.59370997       13.35640585        4.33767291
  |   30: Species Se           -1.59373099       13.34923945        0.98692600
  |   31: Species Mo            6.61705291        1.03865890        2.65765853
  |   32: Species Se            8.26488115        1.97660107        4.34124149
  |   33: Species Se            8.26290534        1.96112425        0.96488515
  |   34: Species Mo            4.93091332        3.84710962        2.64393959
  |   35: Species Se            6.61648173        4.81999944        4.23672601
  |   36: Species Se            6.61662717        4.81963845        6.49112297
  |   37: Species Se            6.61643624        4.82009925        1.00715594
  |   38: Species Mo            3.34071506        6.71090605        2.65776815
  |   39: Species Se            4.97701517        7.66874175        4.34138932
  |   40: Species Se            4.96261393        7.67479946        0.96507390
  |   41: Species Mo            1.69066492        9.56064361        2.66319547
  |   42: Species Se            3.33241487       10.50858836        4.34035358
  |   43: Species Se            3.32793968       10.50852796        0.98110469
  |   44: Species Mo            0.04986386       12.40129749        2.66313014
  |   45: Species Se            1.69177387       13.34896728        4.34027813
  |   46: Species Se            1.68954771       13.34504030        0.98102332
  |   47: Species Mo            9.89687061        1.02436777        2.65730608
  |   48: Species Se           11.54248690        1.97671254        4.33396642
  |   49: Species Se           11.54159150        1.97725319        0.98164567
  |   50: Species Mo            8.30220442        3.84704237        2.64388931
  |   51: Species Se            9.90320827        4.81487603        4.34128954
  |   52: Species Se            9.91565971        4.82438193        0.96492181
  |   53: Species Mo            6.61593642        6.76621978        2.64403780
  |   54: Species Se            8.25477044        7.66871226        4.34138554
  |   55: Species Se            8.26914375        7.67480784        0.96504451
  |   56: Species Mo            4.96766490        9.55811310        2.65744857
  |   57: Species Se            6.61535445       10.50685831        4.33413061
  |   58: Species Se            6.61535783       10.50575188        0.98178317
  |   59: Species Mo            3.33235787       12.40241690        2.65996929
  |   60: Species Se            4.97430185       13.35033718        4.33739916
  |   61: Species Se            4.97269068       13.34933399        0.97923955
  |   62: Species Mo           13.18486870        1.02869136        2.65747494
  |   63: Species Se           14.82551355        1.97553135        4.33741027
  |   64: Species Se           14.82554397        1.97742326        0.97918463
  |   65: Species Mo           11.54404215        3.87802962        2.65733252
  |   66: Species Se           13.18486455        4.81859390        4.34027613
  |   67: Species Se           13.18712786        4.82253868        0.98102218
  |   68: Species Mo            9.89125581        6.71089358        2.65774278
  |   69: Species Se           11.53516829        7.65986663        4.33771772
  |   70: Species Se           11.54129583        7.66346263        0.98695576
  |   71: Species Mo            8.26320105        9.55808927        2.65746254
  |   72: Species Se            9.89827421       10.50858972        4.34037478
  |   73: Species Se            9.90275624       10.50855629        0.98111888
  |   74: Species Mo            6.61489107       12.40304458        2.65755946
  |   75: Species Se            8.25529377       13.35032773        4.33743055
  |   76: Species Se            8.25693303       13.34933907        0.97927758

  Lattice parameters for 3D lattice (in Angstroms) :    16.417088   16.416901   99.896507
  Angle(s) between unit vectors (in degrees)       :    90.000000   90.000000  120.011315


  Quantities derived from the lattice vectors:
  | Reciprocal lattice vector 1:  0.382722  0.221066  0.000000
  | Reciprocal lattice vector 2:  0.000000  0.441985  0.000000
  | Reciprocal lattice vector 3:  0.000000  0.000000  0.062897
  | Unit cell volume                               :   0.233141E+05  A^3

  Fractional coordinates:
                         L1                L2                L3
       atom_frac         0.03919458        0.07236423        0.02660267  Mo
       atom_frac         0.17258044        0.13905007        0.04338545  Se
       atom_frac         0.17265586        0.13908904        0.00982729  Se
       atom_frac         0.03923922        0.27233267        0.02662706  Mo
       atom_frac         0.17245901        0.33895993        0.04344789  Se
       atom_frac         0.17246200        0.33923583        0.00982097  Se
       atom_frac         0.03931678        0.47231561        0.02665934  Mo
       atom_frac         0.17259012        0.53902884        0.04347940  Se
       atom_frac         0.17266154        0.53916911        0.00986381  Se
       atom_frac         0.03931561        0.67253427        0.02665971  Mo
       atom_frac         0.17259170        0.73908514        0.04347968  Se
       atom_frac         0.17266003        0.73901273        0.00986377  Se
       atom_frac         0.03923640        0.87243846        0.02662762  Mo
       atom_frac         0.17245972        0.93902099        0.04344820  Se
       atom_frac         0.17245802        0.93874721        0.00982107  Se
       atom_frac         0.23932143        0.07205864        0.02660127  Mo
       atom_frac         0.37222373        0.13904425        0.04345820  Se
       atom_frac         0.37179701        0.13795605        0.00965937  Se
       atom_frac         0.23932223        0.27279555        0.02660151  Mo
       atom_frac         0.37222416        0.33869841        0.04345872  Se
       atom_frac         0.37179988        0.33936687        0.00965992  Se
       atom_frac         0.23914252        0.47231727        0.02665962  Mo
       atom_frac         0.37284823        0.53882817        0.04342233  Se
       atom_frac         0.37260061        0.53907832        0.00988020  Se
       atom_frac         0.23927222        0.67240293        0.02667966  Mo
       atom_frac         0.37264912        0.73908760        0.04347981  Se
       atom_frac         0.37250767        0.73901370        0.00986355  Se
       atom_frac         0.23914151        0.87236050        0.02665922  Mo
       atom_frac         0.37285125        0.93954444        0.04342167  Se
       atom_frac         0.37259783        0.93904033        0.00987948  Se
       atom_frac         0.43960271        0.07306353        0.02660412  Mo
       atom_frac         0.57297572        0.13904224        0.04345739  Se
       atom_frac         0.57231084        0.13795353        0.00965885  Se
       atom_frac         0.43570798        0.27062149        0.02646679  Mo
       atom_frac         0.57260940        0.33905856        0.04241115  Se
       atom_frac         0.57260556        0.33903316        0.06497848  Se
       atom_frac         0.57261015        0.33906558        0.01008199  Se
       atom_frac         0.43960450        0.47207269        0.02660522  Mo
       atom_frac         0.57297523        0.53945079        0.04345887  Se
       atom_frac         0.57231115        0.53987691        0.00966074  Se
       atom_frac         0.43936067        0.67253494        0.02665955  Mo
       atom_frac         0.57271536        0.73921726        0.04344850  Se
       atom_frac         0.57244064        0.73921302        0.00982121  Se
       atom_frac         0.43936062        0.87235820        0.02665889  Mo
       atom_frac         0.57271539        0.93902118        0.04344775  Se
       atom_frac         0.57244163        0.93874494        0.00982040  Se
       atom_frac         0.63888062        0.07205824        0.02660059  Mo
       atom_frac         0.77262563        0.13905008        0.04338456  Se
       atom_frac         0.77259011        0.13908811        0.00982663  Se
       atom_frac         0.64105817        0.27061676        0.02646628  Mo
       atom_frac         0.77263070        0.33869815        0.04345787  Se
       atom_frac         0.77372359        0.33936684        0.00965921  Se
       atom_frac         0.64105139        0.47596369        0.02646777  Mo
       atom_frac         0.77262929        0.53944872        0.04345883  Se
       atom_frac         0.77371926        0.53987750        0.00966044  Se
       atom_frac         0.63888072        0.67235693        0.02660202  Mo
       atom_frac         0.77262537        0.73909556        0.04338621  Se
       atom_frac         0.77258665        0.73901773        0.00982800  Se
       atom_frac         0.63934375        0.87243694        0.02662725  Mo
       atom_frac         0.77270940        0.93911755        0.04341893  Se
       atom_frac         0.77257596        0.93904698        0.00980254  Se
       atom_frac         0.83931175        0.07236238        0.02660228  Mo
       atom_frac         0.97256026        0.13896699        0.04341904  Se
       atom_frac         0.97262867        0.13910007        0.00980199  Se
       atom_frac         0.83961570        0.27279653        0.02660086  Mo
       atom_frac         0.97265422        0.33895968        0.04344773  Se
       atom_frac         0.97293088        0.33923718        0.00982039  Se
       atom_frac         0.83861153        0.47207182        0.02660496  Mo
       atom_frac         0.97213412        0.53882648        0.04342212  Se
       atom_frac         0.97263389        0.53907944        0.00987978  Se
       atom_frac         0.83961805        0.67235525        0.02660216  Mo
       atom_frac         0.97265597        0.73921736        0.04344871  Se
       atom_frac         0.97292780        0.73921501        0.00982135  Se
       atom_frac         0.83931196        0.87248109        0.02660313  Mo
       atom_frac         0.97256131        0.93911688        0.04341924  Se
       atom_frac         0.97262638        0.93904734        0.00980292  Se

  Initial moments and charges:
  |  Atom   Moment         Charge        Species
  |     1   0.100000E+01   0.000000E+00   Mo
  |     2   0.100000E+01   0.000000E+00   Se
  |     3   0.100000E+01   0.000000E+00   Se
  |     4   0.100000E+01   0.000000E+00   Mo
  |     5   0.100000E+01   0.000000E+00   Se
  |     6   0.100000E+01   0.000000E+00   Se
  |     7   0.100000E+01   0.000000E+00   Mo
  |     8   0.100000E+01   0.000000E+00   Se
  |     9   0.100000E+01   0.000000E+00   Se
  |    10   0.100000E+01   0.000000E+00   Mo
  |    11   0.100000E+01   0.000000E+00   Se
  |    12   0.100000E+01   0.000000E+00   Se
  |    13   0.100000E+01   0.000000E+00   Mo
  |    14   0.100000E+01   0.000000E+00   Se
  |    15   0.100000E+01   0.000000E+00   Se
  |    16   0.100000E+01   0.000000E+00   Mo
  |    17   0.100000E+01   0.000000E+00   Se
  |    18   0.100000E+01   0.000000E+00   Se
  |    19   0.100000E+01   0.000000E+00   Mo
  |    20   0.100000E+01   0.000000E+00   Se
  |    21   0.100000E+01   0.000000E+00   Se
  |    22   0.100000E+01   0.000000E+00   Mo
  |    23   0.100000E+01   0.000000E+00   Se
  |    24   0.100000E+01   0.000000E+00   Se
  |    25   0.100000E+01   0.000000E+00   Mo
  |    26   0.100000E+01   0.000000E+00   Se
  |    27   0.100000E+01   0.000000E+00   Se
  |    28   0.100000E+01   0.000000E+00   Mo
  |    29   0.100000E+01   0.000000E+00   Se
  |    30   0.100000E+01   0.000000E+00   Se
  |    31   0.100000E+01   0.000000E+00   Mo
  |    32   0.100000E+01   0.000000E+00   Se
  |    33   0.100000E+01   0.000000E+00   Se
  |    34   0.100000E+01   0.000000E+00   Mo
  |    35   0.100000E+01   0.000000E+00   Se
  |    36   0.100000E+01   0.000000E+00   Se
  |    37   0.100000E+01   0.000000E+00   Se
  |    38   0.100000E+01   0.000000E+00   Mo
  |    39   0.100000E+01   0.000000E+00   Se
  |    40   0.100000E+01   0.000000E+00   Se
  |    41   0.100000E+01   0.000000E+00   Mo
  |    42   0.100000E+01   0.000000E+00   Se
  |    43   0.100000E+01   0.000000E+00   Se
  |    44   0.100000E+01   0.000000E+00   Mo
  |    45   0.100000E+01   0.000000E+00   Se
  |    46   0.100000E+01   0.000000E+00   Se
  |    47   0.100000E+01   0.000000E+00   Mo
  |    48   0.100000E+01   0.000000E+00   Se
  |    49   0.100000E+01   0.000000E+00   Se
  |    50   0.100000E+01   0.000000E+00   Mo
  |    51   0.100000E+01   0.000000E+00   Se
  |    52   0.100000E+01   0.000000E+00   Se
  |    53   0.100000E+01   0.000000E+00   Mo
  |    54   0.100000E+01   0.000000E+00   Se
  |    55   0.100000E+01   0.000000E+00   Se
  |    56   0.100000E+01   0.000000E+00   Mo
  |    57   0.100000E+01   0.000000E+00   Se
  |    58   0.100000E+01   0.000000E+00   Se
  |    59   0.100000E+01   0.000000E+00   Mo
  |    60   0.100000E+01   0.000000E+00   Se
  |    61   0.100000E+01   0.000000E+00   Se
  |    62   0.100000E+01   0.000000E+00   Mo
  |    63   0.100000E+01   0.000000E+00   Se
  |    64   0.100000E+01   0.000000E+00   Se
  |    65   0.100000E+01   0.000000E+00   Mo
  |    66   0.100000E+01   0.000000E+00   Se
  |    67   0.100000E+01   0.000000E+00   Se
  |    68   0.100000E+01   0.000000E+00   Mo
  |    69   0.100000E+01   0.000000E+00   Se
  |    70   0.100000E+01   0.000000E+00   Se
  |    71   0.100000E+01   0.000000E+00   Mo
  |    72   0.100000E+01   0.000000E+00   Se
  |    73   0.100000E+01   0.000000E+00   Se
  |    74   0.100000E+01   0.000000E+00   Mo
  |    75   0.100000E+01   0.000000E+00   Se
  |    76   0.100000E+01   0.000000E+00   Se

 
  Finished reading input file 'control.in'.
 

------------------------------------------------------------
          Reading geometry description geometry.in.
------------------------------------------------------------
 
  Consistency checks for stacksize environment parameter are next.
 
  | Maximum stacksize for task 0: unlimited
  | Maximum stacksize for task 1: unlimited
  | Maximum stacksize for task 2: unlimited
  | Maximum stacksize for task 3: unlimited
  | Maximum stacksize for task 4: unlimited
  | Maximum stacksize for task 5: unlimited
  | Maximum stacksize for task 6: unlimited
  | Maximum stacksize for task 7: unlimited
  | Maximum stacksize for task 8: unlimited
  | Maximum stacksize for task 9: unlimited
  | Maximum stacksize for task 10: unlimited
  | Maximum stacksize for task 11: unlimited
  | Maximum stacksize for task 12: unlimited
  | Maximum stacksize for task 13: unlimited
  | Maximum stacksize for task 14: unlimited
  | Maximum stacksize for task 15: unlimited
  | Maximum stacksize for task 16: unlimited
  | Maximum stacksize for task 17: unlimited
  | Maximum stacksize for task 18: unlimited
  | Maximum stacksize for task 19: unlimited
  | Maximum stacksize for task 20: unlimited
  | Maximum stacksize for task 21: unlimited
  | Maximum stacksize for task 22: unlimited
  | Maximum stacksize for task 23: unlimited
  | Maximum stacksize for task 24: unlimited
  | Maximum stacksize for task 25: unlimited
  | Maximum stacksize for task 26: unlimited
  | Maximum stacksize for task 27: unlimited
  | Maximum stacksize for task 28: unlimited
  | Maximum stacksize for task 29: unlimited
  | Maximum stacksize for task 30: unlimited
  | Maximum stacksize for task 31: unlimited
  | Maximum stacksize for task 32: unlimited
  | Maximum stacksize for task 33: unlimited
  | Maximum stacksize for task 34: unlimited
  | Maximum stacksize for task 35: unlimited
  | Maximum stacksize for task 36: unlimited
  | Maximum stacksize for task 37: unlimited
  | Maximum stacksize for task 38: unlimited
  | Maximum stacksize for task 39: unlimited
  | Maximum stacksize for task 40: unlimited
  | Maximum stacksize for task 41: unlimited
  | Maximum stacksize for task 42: unlimited
  | Maximum stacksize for task 43: unlimited
  | Maximum stacksize for task 44: unlimited
  | Maximum stacksize for task 45: unlimited
  | Maximum stacksize for task 46: unlimited
  | Maximum stacksize for task 47: unlimited
  | Maximum stacksize for task 48: unlimited
  | Maximum stacksize for task 49: unlimited
  | Maximum stacksize for task 50: unlimited
  | Maximum stacksize for task 51: unlimited
  | Maximum stacksize for task 52: unlimited
  | Maximum stacksize for task 53: unlimited
  | Maximum stacksize for task 54: unlimited
  | Maximum stacksize for task 55: unlimited
  | Maximum stacksize for task 56: unlimited
  | Maximum stacksize for task 57: unlimited
  | Maximum stacksize for task 58: unlimited
  | Maximum stacksize for task 59: unlimited
  | Maximum stacksize for task 60: unlimited
  | Maximum stacksize for task 61: unlimited
  | Maximum stacksize for task 62: unlimited
  | Maximum stacksize for task 63: unlimited
  | Maximum stacksize for task 64: unlimited
  | Maximum stacksize for task 65: unlimited
  | Maximum stacksize for task 66: unlimited
  | Maximum stacksize for task 67: unlimited
  | Maximum stacksize for task 68: unlimited
  | Maximum stacksize for task 69: unlimited
  | Maximum stacksize for task 70: unlimited
  | Maximum stacksize for task 71: unlimited
  | Maximum stacksize for task 72: unlimited
  | Maximum stacksize for task 73: unlimited
  | Maximum stacksize for task 74: unlimited
  | Maximum stacksize for task 75: unlimited
  | Maximum stacksize for task 76: unlimited
  | Maximum stacksize for task 77: unlimited
  | Maximum stacksize for task 78: unlimited
  | Maximum stacksize for task 79: unlimited
  | Maximum stacksize for task 80: unlimited
  | Maximum stacksize for task 81: unlimited
  | Maximum stacksize for task 82: unlimited
  | Maximum stacksize for task 83: unlimited
  | Maximum stacksize for task 84: unlimited
  | Maximum stacksize for task 85: unlimited
  | Maximum stacksize for task 86: unlimited
  | Maximum stacksize for task 87: unlimited
  | Maximum stacksize for task 88: unlimited
  | Maximum stacksize for task 89: unlimited
  | Maximum stacksize for task 90: unlimited
  | Maximum stacksize for task 91: unlimited
  | Maximum stacksize for task 92: unlimited
  | Maximum stacksize for task 93: unlimited
  | Maximum stacksize for task 94: unlimited
  | Maximum stacksize for task 95: unlimited
  | Maximum stacksize for task 96: unlimited
  | Maximum stacksize for task 97: unlimited
  | Maximum stacksize for task 98: unlimited
  | Maximum stacksize for task 99: unlimited
  | Maximum stacksize for task 100: unlimited
  | Maximum stacksize for task 101: unlimited
  | Maximum stacksize for task 102: unlimited
  | Maximum stacksize for task 103: unlimited
  | Maximum stacksize for task 104: unlimited
  | Maximum stacksize for task 105: unlimited
  | Maximum stacksize for task 106: unlimited
  | Maximum stacksize for task 107: unlimited
  | Maximum stacksize for task 108: unlimited
  | Maximum stacksize for task 109: unlimited
  | Maximum stacksize for task 110: unlimited
  | Maximum stacksize for task 111: unlimited
  | Maximum stacksize for task 112: unlimited
  | Maximum stacksize for task 113: unlimited
  | Maximum stacksize for task 114: unlimited
  | Maximum stacksize for task 115: unlimited
  | Maximum stacksize for task 116: unlimited
  | Maximum stacksize for task 117: unlimited
  | Maximum stacksize for task 118: unlimited
  | Maximum stacksize for task 119: unlimited
  | Maximum stacksize for task 120: unlimited
  | Maximum stacksize for task 121: unlimited
  | Maximum stacksize for task 122: unlimited
  | Maximum stacksize for task 123: unlimited
  | Maximum stacksize for task 124: unlimited
  | Maximum stacksize for task 125: unlimited
  | Maximum stacksize for task 126: unlimited
  | Maximum stacksize for task 127: unlimited
  | Maximum stacksize for task 128: unlimited
  | Maximum stacksize for task 129: unlimited
  | Maximum stacksize for task 130: unlimited
  | Maximum stacksize for task 131: unlimited
  | Maximum stacksize for task 132: unlimited
  | Maximum stacksize for task 133: unlimited
  | Maximum stacksize for task 134: unlimited
  | Maximum stacksize for task 135: unlimited
  | Maximum stacksize for task 136: unlimited
  | Maximum stacksize for task 137: unlimited
  | Maximum stacksize for task 138: unlimited
  | Maximum stacksize for task 139: unlimited
  | Maximum stacksize for task 140: unlimited
  | Maximum stacksize for task 141: unlimited
  | Maximum stacksize for task 142: unlimited
  | Maximum stacksize for task 143: unlimited
  | Maximum stacksize for task 144: unlimited
  | Maximum stacksize for task 145: unlimited
  | Maximum stacksize for task 146: unlimited
  | Maximum stacksize for task 147: unlimited
  | Maximum stacksize for task 148: unlimited
  | Maximum stacksize for task 149: unlimited
  | Maximum stacksize for task 150: unlimited
  | Maximum stacksize for task 151: unlimited
  | Maximum stacksize for task 152: unlimited
  | Maximum stacksize for task 153: unlimited
  | Maximum stacksize for task 154: unlimited
  | Maximum stacksize for task 155: unlimited
  | Maximum stacksize for task 156: unlimited
  | Maximum stacksize for task 157: unlimited
  | Maximum stacksize for task 158: unlimited
  | Maximum stacksize for task 159: unlimited
  | Maximum stacksize for task 160: unlimited
  | Maximum stacksize for task 161: unlimited
  | Maximum stacksize for task 162: unlimited
  | Maximum stacksize for task 163: unlimited
  | Maximum stacksize for task 164: unlimited
  | Maximum stacksize for task 165: unlimited
  | Maximum stacksize for task 166: unlimited
  | Maximum stacksize for task 167: unlimited
  | Maximum stacksize for task 168: unlimited
  | Maximum stacksize for task 169: unlimited
  | Maximum stacksize for task 170: unlimited
  | Maximum stacksize for task 171: unlimited
  | Maximum stacksize for task 172: unlimited
  | Maximum stacksize for task 173: unlimited
  | Maximum stacksize for task 174: unlimited
  | Maximum stacksize for task 175: unlimited
  | Maximum stacksize for task 176: unlimited
  | Maximum stacksize for task 177: unlimited
  | Maximum stacksize for task 178: unlimited
  | Maximum stacksize for task 179: unlimited
  | Maximum stacksize for task 180: unlimited
  | Maximum stacksize for task 181: unlimited
  | Maximum stacksize for task 182: unlimited
  | Maximum stacksize for task 183: unlimited
  | Maximum stacksize for task 184: unlimited
  | Maximum stacksize for task 185: unlimited
  | Maximum stacksize for task 186: unlimited
  | Maximum stacksize for task 187: unlimited
  | Maximum stacksize for task 188: unlimited
  | Maximum stacksize for task 189: unlimited
  | Maximum stacksize for task 190: unlimited
  | Maximum stacksize for task 191: unlimited
  | Maximum stacksize for task 192: unlimited
  | Maximum stacksize for task 193: unlimited
  | Maximum stacksize for task 194: unlimited
  | Maximum stacksize for task 195: unlimited
  | Maximum stacksize for task 196: unlimited
  | Maximum stacksize for task 197: unlimited
  | Maximum stacksize for task 198: unlimited
  | Maximum stacksize for task 199: unlimited
  | Maximum stacksize for task 200: unlimited
  | Maximum stacksize for task 201: unlimited
  | Maximum stacksize for task 202: unlimited
  | Maximum stacksize for task 203: unlimited
  | Maximum stacksize for task 204: unlimited
  | Maximum stacksize for task 205: unlimited
  | Maximum stacksize for task 206: unlimited
  | Maximum stacksize for task 207: unlimited
  | Maximum stacksize for task 208: unlimited
  | Maximum stacksize for task 209: unlimited
  | Maximum stacksize for task 210: unlimited
  | Maximum stacksize for task 211: unlimited
  | Maximum stacksize for task 212: unlimited
  | Maximum stacksize for task 213: unlimited
  | Maximum stacksize for task 214: unlimited
  | Maximum stacksize for task 215: unlimited
  | Maximum stacksize for task 216: unlimited
  | Maximum stacksize for task 217: unlimited
  | Maximum stacksize for task 218: unlimited
  | Maximum stacksize for task 219: unlimited
  | Maximum stacksize for task 220: unlimited
  | Maximum stacksize for task 221: unlimited
  | Maximum stacksize for task 222: unlimited
  | Maximum stacksize for task 223: unlimited
  | Maximum stacksize for task 224: unlimited
  | Maximum stacksize for task 225: unlimited
  | Maximum stacksize for task 226: unlimited
  | Maximum stacksize for task 227: unlimited
  | Maximum stacksize for task 228: unlimited
  | Maximum stacksize for task 229: unlimited
  | Maximum stacksize for task 230: unlimited
  | Maximum stacksize for task 231: unlimited
  | Maximum stacksize for task 232: unlimited
  | Maximum stacksize for task 233: unlimited
  | Maximum stacksize for task 234: unlimited
  | Maximum stacksize for task 235: unlimited
  | Maximum stacksize for task 236: unlimited
  | Maximum stacksize for task 237: unlimited
  | Maximum stacksize for task 238: unlimited
  | Maximum stacksize for task 239: unlimited
  | Maximum stacksize for task 240: unlimited
  | Maximum stacksize for task 241: unlimited
  | Maximum stacksize for task 242: unlimited
  | Maximum stacksize for task 243: unlimited
  | Maximum stacksize for task 244: unlimited
  | Maximum stacksize for task 245: unlimited
  | Maximum stacksize for task 246: unlimited
  | Maximum stacksize for task 247: unlimited
  | Maximum stacksize for task 248: unlimited
  | Maximum stacksize for task 249: unlimited
  | Maximum stacksize for task 250: unlimited
  | Maximum stacksize for task 251: unlimited
  | Maximum stacksize for task 252: unlimited
  | Maximum stacksize for task 253: unlimited
  | Maximum stacksize for task 254: unlimited
  | Maximum stacksize for task 255: unlimited
  | Maximum stacksize for task 256: unlimited
  | Maximum stacksize for task 257: unlimited
  | Maximum stacksize for task 258: unlimited
  | Maximum stacksize for task 259: unlimited
  | Maximum stacksize for task 260: unlimited
  | Maximum stacksize for task 261: unlimited
  | Maximum stacksize for task 262: unlimited
  | Maximum stacksize for task 263: unlimited
  | Maximum stacksize for task 264: unlimited
  | Maximum stacksize for task 265: unlimited
  | Maximum stacksize for task 266: unlimited
  | Maximum stacksize for task 267: unlimited
  | Maximum stacksize for task 268: unlimited
  | Maximum stacksize for task 269: unlimited
  | Maximum stacksize for task 270: unlimited
  | Maximum stacksize for task 271: unlimited
  | Maximum stacksize for task 272: unlimited
  | Maximum stacksize for task 273: unlimited
  | Maximum stacksize for task 274: unlimited
  | Maximum stacksize for task 275: unlimited
  | Maximum stacksize for task 276: unlimited
  | Maximum stacksize for task 277: unlimited
  | Maximum stacksize for task 278: unlimited
  | Maximum stacksize for task 279: unlimited
  | Maximum stacksize for task 280: unlimited
  | Maximum stacksize for task 281: unlimited
  | Maximum stacksize for task 282: unlimited
  | Maximum stacksize for task 283: unlimited
  | Maximum stacksize for task 284: unlimited
  | Maximum stacksize for task 285: unlimited
  | Maximum stacksize for task 286: unlimited
  | Maximum stacksize for task 287: unlimited
  | Current stacksize for task 0: unlimited
  | Current stacksize for task 1: unlimited
  | Current stacksize for task 2: unlimited
  | Current stacksize for task 3: unlimited
  | Current stacksize for task 4: unlimited
  | Current stacksize for task 5: unlimited
  | Current stacksize for task 6: unlimited
  | Current stacksize for task 7: unlimited
  | Current stacksize for task 8: unlimited
  | Current stacksize for task 9: unlimited
  | Current stacksize for task 10: unlimited
  | Current stacksize for task 11: unlimited
  | Current stacksize for task 12: unlimited
  | Current stacksize for task 13: unlimited
  | Current stacksize for task 14: unlimited
  | Current stacksize for task 15: unlimited
  | Current stacksize for task 16: unlimited
  | Current stacksize for task 17: unlimited
  | Current stacksize for task 18: unlimited
  | Current stacksize for task 19: unlimited
  | Current stacksize for task 20: unlimited
  | Current stacksize for task 21: unlimited
  | Current stacksize for task 22: unlimited
  | Current stacksize for task 23: unlimited
  | Current stacksize for task 24: unlimited
  | Current stacksize for task 25: unlimited
  | Current stacksize for task 26: unlimited
  | Current stacksize for task 27: unlimited
  | Current stacksize for task 28: unlimited
  | Current stacksize for task 29: unlimited
  | Current stacksize for task 30: unlimited
  | Current stacksize for task 31: unlimited
  | Current stacksize for task 32: unlimited
  | Current stacksize for task 33: unlimited
  | Current stacksize for task 34: unlimited
  | Current stacksize for task 35: unlimited
  | Current stacksize for task 36: unlimited
  | Current stacksize for task 37: unlimited
  | Current stacksize for task 38: unlimited
  | Current stacksize for task 39: unlimited
  | Current stacksize for task 40: unlimited
  | Current stacksize for task 41: unlimited
  | Current stacksize for task 42: unlimited
  | Current stacksize for task 43: unlimited
  | Current stacksize for task 44: unlimited
  | Current stacksize for task 45: unlimited
  | Current stacksize for task 46: unlimited
  | Current stacksize for task 47: unlimited
  | Current stacksize for task 48: unlimited
  | Current stacksize for task 49: unlimited
  | Current stacksize for task 50: unlimited
  | Current stacksize for task 51: unlimited
  | Current stacksize for task 52: unlimited
  | Current stacksize for task 53: unlimited
  | Current stacksize for task 54: unlimited
  | Current stacksize for task 55: unlimited
  | Current stacksize for task 56: unlimited
  | Current stacksize for task 57: unlimited
  | Current stacksize for task 58: unlimited
  | Current stacksize for task 59: unlimited
  | Current stacksize for task 60: unlimited
  | Current stacksize for task 61: unlimited
  | Current stacksize for task 62: unlimited
  | Current stacksize for task 63: unlimited
  | Current stacksize for task 64: unlimited
  | Current stacksize for task 65: unlimited
  | Current stacksize for task 66: unlimited
  | Current stacksize for task 67: unlimited
  | Current stacksize for task 68: unlimited
  | Current stacksize for task 69: unlimited
  | Current stacksize for task 70: unlimited
  | Current stacksize for task 71: unlimited
  | Current stacksize for task 72: unlimited
  | Current stacksize for task 73: unlimited
  | Current stacksize for task 74: unlimited
  | Current stacksize for task 75: unlimited
  | Current stacksize for task 76: unlimited
  | Current stacksize for task 77: unlimited
  | Current stacksize for task 78: unlimited
  | Current stacksize for task 79: unlimited
  | Current stacksize for task 80: unlimited
  | Current stacksize for task 81: unlimited
  | Current stacksize for task 82: unlimited
  | Current stacksize for task 83: unlimited
  | Current stacksize for task 84: unlimited
  | Current stacksize for task 85: unlimited
  | Current stacksize for task 86: unlimited
  | Current stacksize for task 87: unlimited
  | Current stacksize for task 88: unlimited
  | Current stacksize for task 89: unlimited
  | Current stacksize for task 90: unlimited
  | Current stacksize for task 91: unlimited
  | Current stacksize for task 92: unlimited
  | Current stacksize for task 93: unlimited
  | Current stacksize for task 94: unlimited
  | Current stacksize for task 95: unlimited
  | Current stacksize for task 96: unlimited
  | Current stacksize for task 97: unlimited
  | Current stacksize for task 98: unlimited
  | Current stacksize for task 99: unlimited
  | Current stacksize for task 100: unlimited
  | Current stacksize for task 101: unlimited
  | Current stacksize for task 102: unlimited
  | Current stacksize for task 103: unlimited
  | Current stacksize for task 104: unlimited
  | Current stacksize for task 105: unlimited
  | Current stacksize for task 106: unlimited
  | Current stacksize for task 107: unlimited
  | Current stacksize for task 108: unlimited
  | Current stacksize for task 109: unlimited
  | Current stacksize for task 110: unlimited
[...]
  |    33       34.021056       -0.021056        7.874163       15.916134       10.184023        0.046737
  |    34       41.998143        0.001857        8.245652       18.734185       14.929284        0.077581        0.011441
  |    35       33.803559        0.196441        7.743471       15.600565       10.387111        0.072413
  |    36       34.275881       -0.275881        7.955953       16.224492       10.074884        0.020552
  |    37       34.022292       -0.022292        7.875077       15.919752       10.182112        0.045352
  |    38       41.964585        0.035415        8.243521       18.731444       14.901133        0.077135        0.011351
  |    39       33.992042        0.007958        7.875619       15.882920       10.186258        0.047245
  |    40       34.021038       -0.021038        7.874157       15.916116       10.184027        0.046737
  |    41       41.961370        0.038630        8.242889       18.730385       14.899010        0.077675        0.011411
  |    42       34.015733       -0.015733        7.874333       15.909707       10.184805        0.046888
  |    43       34.019399       -0.019399        7.873620       15.913368       10.185353        0.047058
  |    44       41.961347        0.038653        8.242867       18.730386       14.899009        0.077675        0.011411
  |    45       34.015734       -0.015734        7.874333       15.909700       10.184811        0.046890
  |    46       34.019411       -0.019411        7.873625       15.913379       10.185349        0.047057
  |    47       41.963686        0.036314        8.243722       18.731553       14.899014        0.077952        0.011445
  |    48       34.014775       -0.014775        7.874511       15.909313       10.184266        0.046685
  |    49       34.019793       -0.019793        7.873708       15.915240       10.184168        0.046677
  |    50       41.998144        0.001856        8.245653       18.734188       14.929279        0.077583        0.011442
  |    51       33.992018        0.007982        7.875610       15.882892       10.186268        0.047248
  |    52       34.020995       -0.020995        7.874137       15.916101       10.184021        0.046736
  |    53       41.998073        0.001927        8.245592       18.734184       14.929277        0.077579        0.011441
  |    54       33.992034        0.007966        7.875620       15.882903       10.186265        0.047246
  |    55       34.021036       -0.021036        7.874157       15.916115       10.184027        0.046738
  |    56       41.963705        0.036295        8.243718       18.731570       14.899021        0.077952        0.011445
  |    57       34.014798       -0.014798        7.874517       15.909338       10.184260        0.046683
  |    58       34.019814       -0.019814        7.873715       15.915241       10.184178        0.046680
  |    59       41.962212        0.037788        8.243087       18.730558       14.899402        0.077741        0.011424
  |    60       34.016771       -0.016771        7.874128       15.911057       10.184721        0.046866
  |    61       34.020203       -0.020203        7.873717       15.915223       10.184464        0.046799
  |    62       41.961963        0.038037        8.243159       18.730792       14.898835        0.077756        0.011421
  |    63       34.016763       -0.016763        7.874122       15.911046       10.184728        0.046868
  |    64       34.020195       -0.020195        7.873713       15.915214       10.184468        0.046800
  |    65       41.963756        0.036244        8.243774       18.731555       14.899030        0.077952        0.011445
  |    66       34.015740       -0.015740        7.874334       15.909706       10.184811        0.046889
  |    67       34.019408       -0.019408        7.873623       15.913377       10.185351        0.047057
  |    68       41.964585        0.035415        8.243520       18.731444       14.901136        0.077135        0.011351
  |    69       34.016466       -0.016466        7.874708       15.911135       10.184006        0.046617
  |    70       34.020004       -0.020004        7.873674       15.914047       10.185313        0.046970
  |    71       41.963709        0.036291        8.243716       18.731569       14.899027        0.077952        0.011445
  |    72       34.015732       -0.015732        7.874332       15.909705       10.184807        0.046889
  |    73       34.019398       -0.019398        7.873619       15.913363       10.185356        0.047059
  |    74       41.961979        0.038021        8.243179       18.730794       14.898831        0.077755        0.011421
  |    75       34.016774       -0.016774        7.874129       15.911061       10.184718        0.046865
  |    76       34.020204       -0.020204        7.873718       15.915223       10.184464        0.046799
  |
  | Total     2784.000000       -0.000000
 
  Summary of the per-atom spin analysis:
  |
  |  atom   spin      l=0         l=1         l=2         l=3         l=4
  |     1   -0.000000   -0.000000   -0.000000   -0.000000    0.000000    0.000000
  |     2    0.000000    0.000000    0.000000    0.000000    0.000000
  |     3    0.000000    0.000000    0.000000    0.000000    0.000000
  |     4   -0.000000   -0.000000   -0.000000   -0.000000   -0.000000   -0.000000
  |     5    0.000000    0.000000    0.000000    0.000000    0.000000
  |     6    0.000000    0.000000    0.000000    0.000000    0.000000
  |     7    0.000000    0.000000    0.000000    0.000000    0.000000   -0.000000
  |     8    0.000000    0.000000    0.000000    0.000000    0.000000
  |     9    0.000000    0.000000    0.000000    0.000000    0.000000
  |    10    0.000000    0.000000    0.000000    0.000000    0.000000   -0.000000
  |    11    0.000000    0.000000    0.000000    0.000000    0.000000
  |    12    0.000000    0.000000    0.000000    0.000000    0.000000
  |    13   -0.000000   -0.000000   -0.000000   -0.000000   -0.000000   -0.000000
  |    14    0.000000    0.000000    0.000000    0.000000    0.000000
  |    15    0.000000    0.000000    0.000000    0.000000    0.000000
  |    16   -0.000000   -0.000000   -0.000000   -0.000000   -0.000000   -0.000000
  |    17    0.000000    0.000000    0.000000    0.000000   -0.000000
  |    18    0.000000    0.000000    0.000000    0.000000   -0.000000
  |    19   -0.000000   -0.000000   -0.000000   -0.000000   -0.000000   -0.000000
  |    20    0.000000    0.000000    0.000000    0.000000   -0.000000
  |    21    0.000000    0.000000    0.000000    0.000000   -0.000000
  |    22    0.000000    0.000000    0.000000    0.000000    0.000000   -0.000000
  |    23    0.000000    0.000000    0.000000    0.000000   -0.000000
  |    24    0.000000    0.000000    0.000000    0.000000   -0.000000
  |    25   -0.000000   -0.000000   -0.000000   -0.000000   -0.000000   -0.000000
  |    26    0.000000    0.000000    0.000000    0.000000    0.000000
  |    27    0.000000    0.000000    0.000000    0.000000    0.000000
  |    28    0.000000    0.000000    0.000000    0.000000    0.000000   -0.000000
  |    29    0.000000    0.000000    0.000000    0.000000   -0.000000
  |    30    0.000000    0.000000    0.000000    0.000000   -0.000000
  |    31   -0.000000   -0.000000   -0.000000   -0.000000   -0.000000    0.000000
  |    32    0.000000    0.000000    0.000000    0.000000   -0.000000
  |    33    0.000000    0.000000    0.000000    0.000000   -0.000000
  |    34    0.000000    0.000000    0.000000    0.000000    0.000000   -0.000000
  |    35   -0.000000   -0.000000   -0.000000   -0.000000    0.000000
  |    36   -0.000000   -0.000000   -0.000000    0.000000    0.000000
  |    37   -0.000000   -0.000000   -0.000000    0.000000    0.000000
  |    38   -0.000000   -0.000000   -0.000000   -0.000000   -0.000000    0.000000
  |    39    0.000000    0.000000    0.000000    0.000000   -0.000000
  |    40    0.000000    0.000000    0.000000    0.000000   -0.000000
  |    41    0.000000    0.000000    0.000000    0.000000    0.000000   -0.000000
  |    42    0.000000    0.000000    0.000000    0.000000    0.000000
  |    43    0.000000    0.000000    0.000000    0.000000    0.000000
  |    44    0.000000    0.000000    0.000000    0.000000    0.000000   -0.000000
  |    45    0.000000    0.000000    0.000000    0.000000    0.000000
  |    46    0.000000    0.000000    0.000000    0.000000    0.000000
  |    47   -0.000000   -0.000000   -0.000000   -0.000000   -0.000000   -0.000000
  |    48    0.000000    0.000000    0.000000    0.000000    0.000000
  |    49    0.000000    0.000000    0.000000    0.000000    0.000000
  |    50    0.000000    0.000000    0.000000    0.000000    0.000000   -0.000000
  |    51    0.000000    0.000000    0.000000    0.000000   -0.000000
  |    52    0.000000    0.000000    0.000000    0.000000   -0.000000
  |    53    0.000000    0.000000    0.000000    0.000000    0.000000   -0.000000
  |    54    0.000000    0.000000    0.000000    0.000000   -0.000000
  |    55    0.000000    0.000000    0.000000    0.000000   -0.000000
  |    56   -0.000000   -0.000000   -0.000000   -0.000000   -0.000000   -0.000000
  |    57    0.000000    0.000000    0.000000    0.000000    0.000000
  |    58    0.000000    0.000000    0.000000    0.000000    0.000000
  |    59   -0.000000   -0.000000   -0.000000   -0.000000   -0.000000   -0.000000
  |    60    0.000000    0.000000    0.000000    0.000000    0.000000
  |    61    0.000000    0.000000    0.000000    0.000000    0.000000
  |    62   -0.000000   -0.000000   -0.000000   -0.000000    0.000000    0.000000
  |    63    0.000000    0.000000    0.000000    0.000000    0.000000
  |    64    0.000000    0.000000    0.000000    0.000000    0.000000
  |    65   -0.000000   -0.000000   -0.000000   -0.000000   -0.000000   -0.000000
  |    66    0.000000    0.000000    0.000000    0.000000    0.000000
  |    67    0.000000    0.000000    0.000000    0.000000    0.000000
  |    68   -0.000000   -0.000000   -0.000000   -0.000000   -0.000000    0.000000
  |    69    0.000000    0.000000    0.000000    0.000000   -0.000000
  |    70    0.000000    0.000000    0.000000    0.000000   -0.000000
  |    71   -0.000000   -0.000000   -0.000000   -0.000000   -0.000000   -0.000000
  |    72    0.000000    0.000000    0.000000    0.000000    0.000000
  |    73    0.000000    0.000000    0.000000    0.000000    0.000000
  |    74   -0.000000   -0.000000   -0.000000   -0.000000    0.000000    0.000000
  |    75    0.000000    0.000000    0.000000    0.000000    0.000000
  |    76    0.000000    0.000000    0.000000    0.000000    0.000000
  |
  | Total   -0.000000
 
  Calculating angular momentum projected density of states ...
  | Chemical potential is  -5.104409 eV.
  | writing  spin_up projected DOS (shifted by the chemical potential) for species S to file S_l_proj_dos_tetrahedron_spin_up.dat.
  | writing  spin_up projected DOS (raw data) for species S to file S_l_proj_dos_tetrahedron_spin_up_raw.dat.
  | writing  spin_dn projected DOS (shifted by the chemical potential) for species S to file S_l_proj_dos_tetrahedron_spin_dn.dat.
  | writing  spin_dn projected DOS (raw data) for species S to file S_l_proj_dos_tetrahedron_spin_dn_raw.dat.
  | writing  spin_up projected DOS (shifted by the chemical potential) for species Mo to file Mo_l_proj_dos_tetrahedron_spin_up.dat.
  | writing  spin_up projected DOS (raw data) for species Mo to file Mo_l_proj_dos_tetrahedron_spin_up_raw.dat.
  | writing  spin_dn projected DOS (shifted by the chemical potential) for species Mo to file Mo_l_proj_dos_tetrahedron_spin_dn.dat.
  | writing  spin_dn projected DOS (raw data) for species Mo to file Mo_l_proj_dos_tetrahedron_spin_dn_raw.dat.
  | writing  spin_up projected DOS (shifted by the chemical potential) for species W to file W_l_proj_dos_tetrahedron_spin_up.dat.
  | writing  spin_up projected DOS (raw data) for species W to file W_l_proj_dos_tetrahedron_spin_up_raw.dat.
  | writing  spin_dn projected DOS (shifted by the chemical potential) for species W to file W_l_proj_dos_tetrahedron_spin_dn.dat.
  | writing  spin_dn projected DOS (raw data) for species W to file W_l_proj_dos_tetrahedron_spin_dn_raw.dat.
  | writing  spin_up projected DOS (shifted by the chemical potential) for species Se to file Se_l_proj_dos_tetrahedron_spin_up.dat.
  | writing  spin_up projected DOS (raw data) for species Se to file Se_l_proj_dos_tetrahedron_spin_up_raw.dat.
  | writing  spin_dn projected DOS (shifted by the chemical potential) for species Se to file Se_l_proj_dos_tetrahedron_spin_dn.dat.
  | writing  spin_dn projected DOS (raw data) for species Se to file Se_l_proj_dos_tetrahedron_spin_dn_raw.dat.

  Mulliken analysis                                       :  max(cpu_time)    wall_clock(cpu1)
  | Time for Mulliken analysis                            :          0.714               0.727
  | Total time for Mulliken analysis                      :          0.714               0.727
------------------------------------------------------------

------------------------------------------------------------------------------
  Final output of selected total energy values:

  The following output summarizes some interesting total energy values
  at the end of a run (AFTER all relaxation, molecular dynamics, etc.).

  | Total energy of the DFT / Hartree-Fock s.c.f. calculation      :       -6174864.484662293 eV
  | Final zero-broadening corrected energy (caution - metals only) :       -6174864.484662293 eV
  | For reference only, the value of 1 Hartree used in FHI-aims is :             27.211384500 eV
  | For reference only, the overall average (free atom contribution
  | + realspace contribution) of the electrostatic potential after
  | s.c.f. convergence is                                          :             -1.267731719 eV

  Before relying on these values, please be sure to understand exactly which
  total energy value is referred to by a given number. Different objects may
  all carry the same name 'total energy'. Definitions:

  Total energy of the DFT / Hartree-Fock s.c.f. calculation:
  | Note that this energy does not include ANY quantities calculated after the
  | s.c.f. cycle, in particular not ANY RPA, MP2, etc. many-body perturbation terms.

  Final zero-broadening corrected energy:
  | For metallic systems only, a broadening of the occupation numbers at the Fermi
  | level can be extrapolated back to zero broadening by an electron-gas inspired
  | formula. For all systems that are not real metals, this value can be
  | meaningless and should be avoided.

------------------------------------------------------------------------------
  Methods described in the following list of references were used in this FHI-aims run.
  If you publish the results, please make sure to cite these reference if they apply.
  FHI-aims is an academic code, and for our developers (often, Ph.D. students
  and postdocs), scientific credit in the community is essential.
  Thank you for helping us!

  For any use of FHI-aims, please cite:

    Volker Blum, Ralf Gehrke, Felix Hanke, Paula Havu, Ville Havu,
    Xinguo Ren, Karsten Reuter, and Matthias Scheffler
    'Ab initio molecular simulations with numeric atom-centered orbitals'
    Computer Physics Communications 180, 2175-2196 (2009)
    http://doi.org/10.1016/j.cpc.2009.06.022


  The provided symmetry information was generated with SPGlib:

    Atsushi Togo, Yusuke Seto, Dimitar Pashov
    SPGlib 1.7.3 obtained from http://spglib.sourceforge.net
    Copyright (C) 2008 Atsushi Togo


  The ELSI infrastructure was used in your run to solve the Kohn-Sham electronic structure.
  Please check out http://elsi-interchange.org to learn more.
  If scalability is important for your project, please acknowledge ELSI by citing:

    V. W-z. Yu, F. Corsetti, A. Garcia, W. P. Huhn, M. Jacquelin, W. Jia,
    B. Lange, L. Lin, J. Lu, W. Mi, A. Seifitokaldani, A. Vazquez-Mayagoitia,
    C. Yang, H. Yang, and V. Blum
    'ELSI: A unified software interface for Kohn-Sham electronic structure solvers'
    Computer Physics Communications 222, 267-285 (2018).
    http://doi.org/10.1016/j.cpc.2017.09.007


  For the real-space grid partitioning and parallelization used in this calculation, please cite:

    Ville Havu, Volker Blum, Paula Havu, and Matthias Scheffler,
    'Efficient O(N) integration for all-electron electronic structure calculation'
    'using numerically tabulated basis functions'
    Journal of Computational Physics 228, 8367-8379 (2009).
    http://doi.org/10.1016/j.jcp.2009.08.008

  Of course, there are many other important community references, e.g., those cited in the
  above references. Our list is limited to references that describe implementations in the
  FHI-aims code. The reason is purely practical (length of this list) - please credit others as well.

------------------------------------------------------------
          Leaving FHI-aims.
          Date     :  20220930, Time     :  144505.549

          Computational steps:
          | Number of self-consistency cycles          :           51
          | Number of SCF (re)initializations          :            3
          | Number of relaxation steps                 :            2

          Detailed time accounting                     :  max(cpu_time)    wall_clock(cpu1)
          | Total time                                  :      822.376 s         822.417 s
          | Preparation time                            :        1.343 s           1.343 s
          | Boundary condition initalization            :        2.265 s           2.266 s
          | Grid partitioning                           :        3.449 s           3.450 s
          | Preloading free-atom quantities on grid     :        2.118 s           2.120 s
          | Free-atom superposition energy              :        0.122 s           0.121 s
          | Total time for integrations                 :       89.668 s          89.558 s
          | Total time for solution of K.-S. equations  :      251.864 s         251.868 s
          | Total time for EV reorthonormalization      :       16.466 s          16.368 s
          | Total time for density & force components   :      326.222 s         326.224 s
          | Total time for mixing & preconditioning     :       28.948 s          28.942 s
          | Total time for Hartree multipole update     :        0.641 s           0.645 s
          | Total time for Hartree multipole sum        :       70.647 s          70.650 s
          | Total time for total energy evaluation      :        0.108 s           0.114 s
          | Total time NSC force correction             :        5.876 s           5.875 s
          | Total time for scaled ZORA corrections      :        0.000 s           0.000 s
          | Total time for vdW correction               :       21.191 s          21.194 s
          | Total time for Mulliken analysis            :        0.714 s           0.727 s

          Partial memory accounting:
          | Residual value for overall tracked memory usage across tasks:     0.000000 MB (should be 0.000000 MB)
          | Peak values for overall tracked memory usage:
          |   Minimum:      206.167 MB (on task  11 after allocating temp_ham_ovlp)
          |   Maximum:      211.947 MB (on task   0 after allocating temp_ham_ovlp)
          |   Average:      208.603 MB
          | Largest tracked array allocation:
          |   Minimum:       65.182 MB (hamiltonian on task   0)
          |   Maximum:       65.182 MB (hamiltonian on task   0)
          |   Average:       65.182 MB
          Note:  These values currently only include a subset of arrays which are explicitly tracked.
          The "true" memory usage will be greater.

          Have a nice day.
------------------------------------------------------------
