------------------------------------------------------------
          Invoking FHI-aims ...

          When using FHI-aims, please cite the following reference:

            Volker Blum, Ralf Gehrke, Felix Hanke, Paula Havu,
            Ville Havu, Xinguo Ren, Karsten Reuter, and Matthias Scheffler,
            'Ab Initio Molecular Simulations with Numeric Atom-Centered Orbitals',
            Computer Physics Communications 180, 2175-2196 (2009)

          In addition, many other developments in FHI-aims are likely important for
          your particular application. A partial list of references is given at the end of
          this file. Thank you for giving credit to the authors of these developments.

          For any questions about FHI-aims, please visit our slack channel at

            https://fhi-aims.slack.com

          and our main development and support site at

            https://aims-git.rz-berlin.mpg.de .

          The latter site, in particular, has a wiki to collect information, as well
          as an issue tracker to log discussions, suggest improvements, and report issues
          or bugs. https://aims-git.rz-berlin.mpg.de is also the main development site
          of the project and all new and updated code versions can be obtained there.
          Please send an email to aims-coordinators@fhi-berlin.mpg.de and we will add
          you to these sites. They are for you and everyone is welcome there.

------------------------------------------------------------



  Date     :  20220930, Time     :  122359.062
  Time zero on CPU 1             :   0.263007000000000E+00  s.
  Internal wall clock time zero  :           433772639.062  s.

  FHI-aims created a unique identifier for this run for later identification
  aims_uuid : 33E00858-CDA5-4932-AF88-8FBDF56B5174

  Build configuration of the current instance of FHI-aims
  -------------------------------------------------------
  FHI-aims version      : 220117
  Commit number         : 0c0e6afe2
  CMake host system     : Linux-5.3.18-24.99-default
  CMake version         : 3.22.0
  Fortran compiler      : /mpcdf/soft/SLE_15/packages/x86_64/intel_oneapi/2021.4/mpi/2021.4.0/bin/mpiifort (Intel) version 2021.4.0.20210910
  Fortran compiler flags: -O3 -ip -fp-model precise
  C compiler            : /mpcdf/soft/SLE_15/packages/x86_64/intel/2021.4.0/bin/icc (Intel) version 2021.4.0.20210910
  C compiler flags      : -O3 -ip -fp-model precise
  C++ compiler          : /mpcdf/soft/SLE_15/packages/x86_64/intel/2021.4.0/bin/icpc (Intel) version 2021.4.0.20210910
  C++ compiler flags    : -O3 -ip -fp-model precise
  Using MPI
  Using ScaLAPACK
  Using LibXC
  Using i-PI
  Using RLSY
  Linking against: /mpcdf/soft/SLE_15/packages/x86_64/intel_oneapi/2021.4/mkl/latest/lib/intel64/libmkl_intel_lp64.so
                   /mpcdf/soft/SLE_15/packages/x86_64/intel_oneapi/2021.4/mkl/latest/lib/intel64/libmkl_sequential.so
                   /mpcdf/soft/SLE_15/packages/x86_64/intel_oneapi/2021.4/mkl/latest/lib/intel64/libmkl_core.so
                   /mpcdf/soft/SLE_15/packages/x86_64/intel_oneapi/2021.4/mkl/latest/lib/intel64/libmkl_blacs_intelmpi_lp64.so
                   /mpcdf/soft/SLE_15/packages/x86_64/intel_oneapi/2021.4/mkl/latest/lib/intel64/libmkl_scalapack_lp64.so

  Using      288 parallel tasks.
  Task        0 on host ravl1043 reporting.
  Task        1 on host ravl1043 reporting.
  Task        2 on host ravl1043 reporting.
  Task        3 on host ravl1043 reporting.
  Task        4 on host ravl1043 reporting.
  Task        5 on host ravl1043 reporting.
  Task        6 on host ravl1043 reporting.
  Task        7 on host ravl1043 reporting.
  Task        8 on host ravl1043 reporting.
  Task        9 on host ravl1043 reporting.
  Task       10 on host ravl1043 reporting.
  Task       11 on host ravl1043 reporting.
  Task       12 on host ravl1043 reporting.
  Task       13 on host ravl1043 reporting.
  Task       14 on host ravl1043 reporting.
  Task       15 on host ravl1043 reporting.
  Task       16 on host ravl1043 reporting.
  Task       17 on host ravl1043 reporting.
  Task       18 on host ravl1043 reporting.
  Task       19 on host ravl1043 reporting.
  Task       20 on host ravl1043 reporting.
  Task       21 on host ravl1043 reporting.
  Task       22 on host ravl1043 reporting.
  Task       23 on host ravl1043 reporting.
  Task       24 on host ravl1043 reporting.
  Task       25 on host ravl1043 reporting.
  Task       26 on host ravl1043 reporting.
  Task       27 on host ravl1043 reporting.
  Task       28 on host ravl1043 reporting.
  Task       29 on host ravl1043 reporting.
  Task       30 on host ravl1043 reporting.
  Task       31 on host ravl1043 reporting.
  Task       32 on host ravl1043 reporting.
  Task       33 on host ravl1043 reporting.
  Task       34 on host ravl1043 reporting.
  Task       35 on host ravl1043 reporting.
  Task       36 on host ravl1043 reporting.
  Task       37 on host ravl1043 reporting.
  Task       38 on host ravl1043 reporting.
  Task       39 on host ravl1043 reporting.
  Task       40 on host ravl1043 reporting.
  Task       41 on host ravl1043 reporting.
  Task       42 on host ravl1043 reporting.
  Task       43 on host ravl1043 reporting.
  Task       44 on host ravl1043 reporting.
  Task       45 on host ravl1043 reporting.
  Task       46 on host ravl1043 reporting.
  Task       47 on host ravl1043 reporting.
  Task       48 on host ravl1043 reporting.
  Task       49 on host ravl1043 reporting.
  Task       50 on host ravl1043 reporting.
  Task       51 on host ravl1043 reporting.
  Task       52 on host ravl1043 reporting.
  Task       53 on host ravl1043 reporting.
  Task       54 on host ravl1043 reporting.
  Task       55 on host ravl1043 reporting.
  Task       56 on host ravl1043 reporting.
  Task       57 on host ravl1043 reporting.
  Task       58 on host ravl1043 reporting.
  Task       59 on host ravl1043 reporting.
  Task       60 on host ravl1043 reporting.
  Task       61 on host ravl1043 reporting.
  Task       62 on host ravl1043 reporting.
  Task       63 on host ravl1043 reporting.
  Task       64 on host ravl1043 reporting.
  Task       65 on host ravl1043 reporting.
  Task       66 on host ravl1043 reporting.
  Task       67 on host ravl1043 reporting.
  Task       68 on host ravl1043 reporting.
  Task       69 on host ravl1043 reporting.
  Task       70 on host ravl1043 reporting.
  Task       71 on host ravl1043 reporting.
  Task       72 on host ravl1066 reporting.
  Task       73 on host ravl1066 reporting.
  Task       74 on host ravl1066 reporting.
  Task       75 on host ravl1066 reporting.
  Task       76 on host ravl1066 reporting.
  Task       77 on host ravl1066 reporting.
  Task       78 on host ravl1066 reporting.
  Task       79 on host ravl1066 reporting.
  Task       80 on host ravl1066 reporting.
  Task       81 on host ravl1066 reporting.
  Task       82 on host ravl1066 reporting.
  Task       83 on host ravl1066 reporting.
  Task       84 on host ravl1066 reporting.
  Task       85 on host ravl1066 reporting.
  Task       86 on host ravl1066 reporting.
  Task       87 on host ravl1066 reporting.
  Task       88 on host ravl1066 reporting.
  Task       89 on host ravl1066 reporting.
  Task       90 on host ravl1066 reporting.
  Task       91 on host ravl1066 reporting.
  Task       92 on host ravl1066 reporting.
  Task       93 on host ravl1066 reporting.
  Task       94 on host ravl1066 reporting.
  Task       95 on host ravl1066 reporting.
  Task       96 on host ravl1066 reporting.
  Task       97 on host ravl1066 reporting.
  Task       98 on host ravl1066 reporting.
  Task       99 on host ravl1066 reporting.
  Task      100 on host ravl1066 reporting.
  Task      101 on host ravl1066 reporting.
  Task      102 on host ravl1066 reporting.
  Task      103 on host ravl1066 reporting.
  Task      104 on host ravl1066 reporting.
  Task      105 on host ravl1066 reporting.
  Task      106 on host ravl1066 reporting.
  Task      107 on host ravl1066 reporting.
  Task      108 on host ravl1066 reporting.
  Task      109 on host ravl1066 reporting.
  Task      110 on host ravl1066 reporting.
  Task      111 on host ravl1066 reporting.
  Task      112 on host ravl1066 reporting.
  Task      113 on host ravl1066 reporting.
  Task      114 on host ravl1066 reporting.
  Task      115 on host ravl1066 reporting.
  Task      116 on host ravl1066 reporting.
  Task      117 on host ravl1066 reporting.
  Task      118 on host ravl1066 reporting.
  Task      119 on host ravl1066 reporting.
  Task      120 on host ravl1066 reporting.
  Task      121 on host ravl1066 reporting.
  Task      122 on host ravl1066 reporting.
  Task      123 on host ravl1066 reporting.
  Task      124 on host ravl1066 reporting.
  Task      125 on host ravl1066 reporting.
  Task      126 on host ravl1066 reporting.
  Task      127 on host ravl1066 reporting.
  Task      128 on host ravl1066 reporting.
  Task      129 on host ravl1066 reporting.
  Task      130 on host ravl1066 reporting.
  Task      131 on host ravl1066 reporting.
  Task      132 on host ravl1066 reporting.
  Task      133 on host ravl1066 reporting.
  Task      134 on host ravl1066 reporting.
  Task      135 on host ravl1066 reporting.
  Task      136 on host ravl1066 reporting.
  Task      137 on host ravl1066 reporting.
  Task      138 on host ravl1066 reporting.
  Task      139 on host ravl1066 reporting.
  Task      140 on host ravl1066 reporting.
  Task      141 on host ravl1066 reporting.
  Task      142 on host ravl1066 reporting.
  Task      143 on host ravl1066 reporting.
  Task      144 on host ravl1067 reporting.
  Task      145 on host ravl1067 reporting.
  Task      146 on host ravl1067 reporting.
  Task      147 on host ravl1067 reporting.
  Task      148 on host ravl1067 reporting.
  Task      149 on host ravl1067 reporting.
  Task      150 on host ravl1067 reporting.
  Task      151 on host ravl1067 reporting.
  Task      152 on host ravl1067 reporting.
  Task      153 on host ravl1067 reporting.
  Task      154 on host ravl1067 reporting.
  Task      155 on host ravl1067 reporting.
  Task      156 on host ravl1067 reporting.
  Task      157 on host ravl1067 reporting.
  Task      158 on host ravl1067 reporting.
  Task      159 on host ravl1067 reporting.
  Task      160 on host ravl1067 reporting.
  Task      161 on host ravl1067 reporting.
  Task      162 on host ravl1067 reporting.
  Task      163 on host ravl1067 reporting.
  Task      164 on host ravl1067 reporting.
  Task      165 on host ravl1067 reporting.
  Task      166 on host ravl1067 reporting.
  Task      167 on host ravl1067 reporting.
  Task      168 on host ravl1067 reporting.
  Task      169 on host ravl1067 reporting.
  Task      170 on host ravl1067 reporting.
  Task      171 on host ravl1067 reporting.
  Task      172 on host ravl1067 reporting.
  Task      173 on host ravl1067 reporting.
  Task      174 on host ravl1067 reporting.
  Task      175 on host ravl1067 reporting.
  Task      176 on host ravl1067 reporting.
  Task      177 on host ravl1067 reporting.
  Task      178 on host ravl1067 reporting.
  Task      179 on host ravl1067 reporting.
  Task      180 on host ravl1067 reporting.
  Task      181 on host ravl1067 reporting.
  Task      182 on host ravl1067 reporting.
  Task      183 on host ravl1067 reporting.
  Task      184 on host ravl1067 reporting.
  Task      185 on host ravl1067 reporting.
  Task      186 on host ravl1067 reporting.
  Task      187 on host ravl1067 reporting.
  Task      188 on host ravl1067 reporting.
  Task      189 on host ravl1067 reporting.
  Task      190 on host ravl1067 reporting.
  Task      191 on host ravl1067 reporting.
  Task      192 on host ravl1067 reporting.
  Task      193 on host ravl1067 reporting.
  Task      194 on host ravl1067 reporting.
  Task      195 on host ravl1067 reporting.
  Task      196 on host ravl1067 reporting.
  Task      197 on host ravl1067 reporting.
  Task      198 on host ravl1067 reporting.
  Task      199 on host ravl1067 reporting.
  Task      200 on host ravl1067 reporting.
  Task      201 on host ravl1067 reporting.
  Task      202 on host ravl1067 reporting.
  Task      203 on host ravl1067 reporting.
  Task      204 on host ravl1067 reporting.
  Task      205 on host ravl1067 reporting.
  Task      206 on host ravl1067 reporting.
  Task      207 on host ravl1067 reporting.
  Task      208 on host ravl1067 reporting.
  Task      209 on host ravl1067 reporting.
  Task      210 on host ravl1067 reporting.
  Task      211 on host ravl1067 reporting.
  Task      212 on host ravl1067 reporting.
  Task      213 on host ravl1067 reporting.
  Task      214 on host ravl1067 reporting.
  Task      215 on host ravl1067 reporting.
  Task      216 on host ravl1068 reporting.
  Task      217 on host ravl1068 reporting.
  Task      218 on host ravl1068 reporting.
  Task      219 on host ravl1068 reporting.
  Task      220 on host ravl1068 reporting.
  Task      221 on host ravl1068 reporting.
  Task      222 on host ravl1068 reporting.
  Task      223 on host ravl1068 reporting.
  Task      224 on host ravl1068 reporting.
  Task      225 on host ravl1068 reporting.
  Task      226 on host ravl1068 reporting.
  Task      227 on host ravl1068 reporting.
  Task      228 on host ravl1068 reporting.
  Task      229 on host ravl1068 reporting.
  Task      230 on host ravl1068 reporting.
  Task      231 on host ravl1068 reporting.
  Task      232 on host ravl1068 reporting.
  Task      233 on host ravl1068 reporting.
  Task      234 on host ravl1068 reporting.
  Task      235 on host ravl1068 reporting.
  Task      236 on host ravl1068 reporting.
  Task      237 on host ravl1068 reporting.
  Task      238 on host ravl1068 reporting.
  Task      239 on host ravl1068 reporting.
  Task      240 on host ravl1068 reporting.
  Task      241 on host ravl1068 reporting.
  Task      242 on host ravl1068 reporting.
  Task      243 on host ravl1068 reporting.
  Task      244 on host ravl1068 reporting.
  Task      245 on host ravl1068 reporting.
  Task      246 on host ravl1068 reporting.
  Task      247 on host ravl1068 reporting.
  Task      248 on host ravl1068 reporting.
  Task      249 on host ravl1068 reporting.
  Task      250 on host ravl1068 reporting.
  Task      251 on host ravl1068 reporting.
  Task      252 on host ravl1068 reporting.
  Task      253 on host ravl1068 reporting.
  Task      254 on host ravl1068 reporting.
  Task      255 on host ravl1068 reporting.
  Task      256 on host ravl1068 reporting.
  Task      257 on host ravl1068 reporting.
  Task      258 on host ravl1068 reporting.
  Task      259 on host ravl1068 reporting.
  Task      260 on host ravl1068 reporting.
  Task      261 on host ravl1068 reporting.
  Task      262 on host ravl1068 reporting.
  Task      263 on host ravl1068 reporting.
  Task      264 on host ravl1068 reporting.
  Task      265 on host ravl1068 reporting.
  Task      266 on host ravl1068 reporting.
  Task      267 on host ravl1068 reporting.
  Task      268 on host ravl1068 reporting.
  Task      269 on host ravl1068 reporting.
  Task      270 on host ravl1068 reporting.
  Task      271 on host ravl1068 reporting.
  Task      272 on host ravl1068 reporting.
  Task      273 on host ravl1068 reporting.
  Task      274 on host ravl1068 reporting.
  Task      275 on host ravl1068 reporting.
  Task      276 on host ravl1068 reporting.
  Task      277 on host ravl1068 reporting.
  Task      278 on host ravl1068 reporting.
  Task      279 on host ravl1068 reporting.
  Task      280 on host ravl1068 reporting.
  Task      281 on host ravl1068 reporting.
  Task      282 on host ravl1068 reporting.
  Task      283 on host ravl1068 reporting.
  Task      284 on host ravl1068 reporting.
  Task      285 on host ravl1068 reporting.
  Task      286 on host ravl1068 reporting.
  Task      287 on host ravl1068 reporting.

  Performing system and environment tests:
  | Environment variable OMP_NUM_THREADS correctly set to 1.
  | Checking for ScaLAPACK...
  | Testing pdtran()...
  | All pdtran() tests passed.

  Obtaining array dimensions for all initial allocations:
  
  -----------------------------------------------------------------------
  Parsing control.in (first pass over file, find array dimensions only).
  The contents of control.in will be repeated verbatim below
  unless switched off by setting 'verbatim_writeout .false.' .
  in the first line of control.in .
  -----------------------------------------------------------------------
  
    ##### Physical settings  ################
    xc                 pbe
    spin               collinear
    default_initial_moment 1
    charge      0.0
    relativistic       atomic_zora scalar
    #elsi_restart read
    # SCF settings
    use_symmetric_forces .true.
  #  relax_geometry trm 1E-3
   output dos_tetrahedron -10 0 2001 0.1
  output species_proj_dos_tetrahedron -10 0 2001 0.1
  
    # k-grid settings  (to be adjusted)
    k_grid  4 4 1
    #empty_states 8
    use_dipole_correction
    many_body_dispersion_nl    beta=0.81
  ################################################################################
  #
  #  FHI-aims code project
  # Volker Blum, Fritz Haber Institute Berlin, 2009
  #
  #  Suggested "tight" defaults for S atom (to be pasted into control.in file)
  #
  #  Revised Jan 04, 2011, following tests (SiC) done by Lydia Nemec:
  #     d and g functions of tier 2 now enabled by default.
  #
  ################################################################################
    species        S
  #     global species definitions
      nucleus             16
      mass                32.065
  #
      l_hartree           6
  #
      cut_pot             4.0          2.0  1.0
      basis_dep_cutoff    1e-4
  #
      radial_base         44 7.0
      radial_multiplier   2
      angular_grids       specified
        division   0.4665  110
        division   0.5810  194
        division   0.7139  302
        division   0.8274  434
  #      division   0.9105  590
  #      division   1.0975  770
  #      division   1.2028  974
  #      outer_grid  974
        outer_grid  434
  ################################################################################
  #
  #  Definition of "minimal" basis
  #
  ################################################################################
  #     valence basis states
      valence      3  s   2.
      valence      3  p   4.
  #     ion occupancy
      ion_occ      3  s   1.
      ion_occ      3  p   3.
  ################################################################################
  #
  #  Suggested additional basis functions. For production calculations,
  #  uncomment them one after another (the most important basis functions are
  #  listed first).
  #
  #  Constructed for dimers: 1.6 A, 1.9 A, 2.5 A, 3.25 A, 4.0 A
  #
  ################################################################################
  #  "First tier" - improvements: -652.81 meV to -45.53 meV
       ionic 3 d auto
       hydro 2 p 1.8
       hydro 4 f 7
       ionic 3 s auto
  #  "Second tier" - improvements: -30.20 meV to -1.74 meV
       hydro 4 d 6.2
       hydro 5 g 10.8
  #     hydro 4 p 4.9
  #     hydro 5 f 10
  #     hydro 1 s 0.8
  #  "Third tier" - improvements: -1.04 meV to -0.20 meV
  #     hydro 3 d 3.9
  #     hydro 3 d 2.7
  #     hydro 5 g 12
  #     hydro 4 p 10.4
  #     hydro 5 f 12.4
  #     hydro 2 s 1.9
  #  "Fourth tier" - improvements: -0.35 meV to -0.06 meV
  #     hydro 4 d 10.4
  #     hydro 4 p 7.2
  #     hydro 4 d 10
  #     hydro 5 g 19.2
  #     hydro 4 s 12
  
  ################################################################################
  #
  # For methods that use the localized form of the "resolution of identity" for
  # the two-electron Coulomb operator (RI_method LVL), particularly Hartree-Fock and
  # hybrid density functional calculations, the highest accuracy can be obtained by
  # uncommenting the line beginning with "for_aux"  below, thus adding an extra g radial
  # function to the construction of the product basis set for the expansion.
  # See Ref. New J. Phys. 17, 093020 (2015) for more information, particularly Figs. 1 and 6.
  #
  ################################################################################
  #
  # for_aux hydro 5 g 6.0
  ################################################################################
  #
  #  FHI-aims code project
  # Volker Blum, Fritz Haber Institute Berlin, 2009
  #
  #  Suggested "tight" defaults for Mo atom (to be pasted into control.in file)
  #
  ################################################################################
    species        Mo
  #     global species definitions
      nucleus             42
      mass                95.94
  #
      l_hartree           6
  #
      cut_pot             4.0  2.0  1.0
      basis_dep_cutoff    1e-4
  #
      radial_base         59 7.0
      radial_multiplier   2
      angular_grids specified
        division   0.3117   50
        division   0.6750  110
        division   1.0351  194
        division   1.2073  302
        division   1.6402  434
  #      division   1.9185  590
  #      division   2.0237  770
  #      division   2.0980  974
  #      division   2.7972 1202
  #      outer_grid  974
        outer_grid  434
  ################################################################################
  #
  #  Definition of "minimal" basis
  #
  ################################################################################
  #     valence basis states
      valence      5  s   1.
      valence      4  p   6.
      valence      4  d   5.
  #     ion occupancy
      ion_occ     5  s   0.
      ion_occ     4  p   6.
      ion_occ     4  d   4.
  ################################################################################
  #
  #  Suggested additional basis functions. For production calculations,
  #  uncomment them one after another (the most important basis functions are
  #  listed first).
  #
  #  Constructed for dimers: 1.675 A, 1.9 A, 2.375 A, 3.00 A, 4.00 A
  #
  ################################################################################
  #  "First tier"  - max. impr. -711.23  meV, min. impr. -21.07 meV
       hydro 4 f 8.4
       hydro 3 d 2.8
       ionic 5 p auto
       hydro 5 g 12
       ionic 5 s auto
  #  "Second tier" - max. impr. -39.38  meV, min. impr. -2.68 meV
  #     hydro 4 f 12.4
  #     hydro 3 d 3.3
  #     hydro 6 h 17.2
  #     hydro 4 f 7.6
  #     hydro 3 p 3.0
  #     hydro 1 s 0.65
  #  "Third tier"  - max. impr. -5.50 meV, min. impr. -0.47 meV
  #     hydro 4 f 29.2
  #     hydro 5 g 11.2
  #     hydro 3 d 6.8
  #     hydro 6 h 14.8
  #     hydro 2 p 2.3
  #     hydro 4 s 3.8
  #  "Fourth tier"  - max. impr. -0.58 meV, min. impr. -0.19 meV
  #     hydro 5 f 6.8
  #     hydro 5 d 14.8
  #     hydro 6 s 7.8
  #     hydro 5 g 20.8
  #     hydro 5 d 10.4
  #     hydro 5 p 9.8
  #  Further functions - -0.17 meV and below
  #     hydro 5 d 3.2
  ################################################################################
  #
  #  FHI-aims code project
  # Volker Blum, Fritz Haber Institute Berlin, 2009
  #
  #  Suggested "tight" defaults for W atom (to be pasted into control.in file)
  #
  ################################################################################
    species          W
  #     global species definitions
      nucleus        74
      mass           183.84
  #
      l_hartree      6
  #
      cut_pot        4.0  2.0  1.0
      basis_dep_cutoff    1e-4
  #
      radial_base    71  7.0
      radial_multiplier  2
      angular_grids specified
        division   0.2901   50
        division   0.6986  110
        division   1.0528  194
        division   1.2659  302
        division   1.5223  434
  #      division   1.8111  590
  #      division   2.0105  770
  #      division   2.0413  974
  #      division   2.8804 1202
  #      outer_grid  974
        outer_grid  434
  ################################################################################
  #
  #  Definition of "minimal" basis
  #
  ################################################################################
  #     valence basis states
      valence      6  s   2.
      valence      5  p   6.
      valence      5  d   4.
      valence      4  f  14.
  #     ion occupancy
      ion_occ      6  s   1.
      ion_occ      5  p   6.
      ion_occ      5  d   3.
      ion_occ      4  f  14.
  ################################################################################
  #
  #  Suggested additional basis functions. For production calculations,
  #  uncomment them one after another (the most important basis functions are
  #  listed first).
  #
  #  Constructed for dimers: 1.775, 1.99, 2.50, 3.25, 4.50 AA
  #
  ################################################################################
  #
  #  "First tier" - improvements: -603.77 meV to -28.99 meV
       hydro 4 f 7.8
       hydro 4 d 5.8
       ionic 6 p auto
       hydro 5 g 12.4
       ionic 6 s auto
  #  "Second tier" - improvements: -28.30 meV to -1.31 meV
  #     hydro 6 h 16.8
  #     ionic 5 d auto
  #     hydro 4 f 8.6
  #     hydro 5 g 16.8
  #     hydro 5 d 8.4
  #     hydro 3 p 3.3
  #     hydro 1 s 0.55
  #  "Third tier" - max. impr. -1.79 meV, min. impr. -0.26 meV
  #     hydro 5 f 10.8
  #     hydro 5 g 34.4
  #     hydro 6 h 20.8
  #     hydro 5 g 12.8
  #     hydro 2 p 1.6
  #     hydro 4 s 4.7
  #     hydro 6 d 18.4
  #  "Fourth tier" -0.46 max. impr. - meV, min. impr. -0.09 meV
  #     hydro 6 h 21.6
  #     hydro 5 f 22.4
  #     hydro 4 f 4
  #     hydro 5 p 9.6
  #     hydro 6 d 17.2
  #     hydro 3 p 5.2
  #     hydro 5 g 4.7
  #     hydro 6 s 7.6
  ################################################################################
  #
  #  FHI-aims code project
  # Volker Blum, Fritz Haber Institute Berlin, 2009
  #
  #  Suggested "tight" defaults for Se atom (to be pasted into control.in file)
  #
  ################################################################################
    species        Se
  #     global species definitions
      nucleus             34
      mass                78.96
  #
      l_hartree           6
  #
      cut_pot             4.0          2.0  1.0
      basis_dep_cutoff    1e-4
  #
      radial_base         55 7.0
      radial_multiplier   2
      angular_grids       specified
        division   0.0830  110
        division   0.1357  194
        division   0.7377  302
        division   0.8610  434
  #      division   0.9640  590
  #      division   1.0773  770
  #      division   2.5539  974
  #      outer_grid  974
        outer_grid  434
  ################################################################################
  #
  #  Definition of "minimal" basis
  #
  ################################################################################
  #     valence basis states
      valence      4  s   2.
      valence      4  p   4.
      valence      3  d  10.
  #     ion occupancy
      ion_occ      4  s   1.
      ion_occ      4  p   3.
      ion_occ      3  d  10.
  ################################################################################
  #
  #  Suggested additional basis functions. For production calculations,
  #  uncomment them one after another (the most important basis functions are
  #  listed first).
  #
  #  Constructed for dimers: 1.85 A, 2.15 A, 2.50 A, 3.00 A, 4.00 A
  #
  ################################################################################
  #  "First tier" - improvements: -336.21 meV to -36.85 meV
       hydro 3 d 4.3
       hydro 2 p 1.6
       hydro 4 f 7.2
       ionic 4 s auto
  #  "Second tier" - improvements: -14.39 meV to -1.49 meV
  #     hydro 5 g 10.4
  #     hydro 4 p 4.5
  #     hydro 4 d 6.2
  #     hydro 4 f 11.2
  #     hydro 1 s 0.65
  #     hydro 6 h 15.2
  #  "Third tier" - improvements: -0.46 meV and below
  #     hydro 5 g 14.4
  #     ionic 4 d auto
  #     hydro 4 f 22.4
  #     hydro 5 f 7.4
  #     hydro 5 p 8
  #     hydro 5 s 9.4
  #  "Fourth tier" - improvements: -0.12 meV and below
  #     hydro 5 d 11.6
  #     hydro 6 h 18
  #     hydro 4 p 4
  #     hydro 5 f 16
  #     hydro 4 s 3.9
  
  
  
  -----------------------------------------------------------------------
  Completed first pass over input file control.in .
  -----------------------------------------------------------------------
  
  
  -----------------------------------------------------------------------
  Parsing geometry.in (first pass over file, find array dimensions only).
  The contents of geometry.in will be repeated verbatim below
  unless switched off by setting 'verbatim_writeout .false.' .
  in the first line of geometry.in .
  -----------------------------------------------------------------------
  
  #
  # This is the geometry file that corresponds to the current relaxation step.
  # If you do not want this file to be written, set the "write_restart_geometry" flag to .false.
  #  aims_uuid : 09C76D5D-39F3-4DF3-A7DE-E4883494C362
  #
    set_vacuum_level        -0.347230
  lattice_vector     15.76960250      0.00000000      0.00000000
  lattice_vector     -7.88732950     13.65525595      0.00000000
  lattice_vector      0.00000000      0.00000000     99.30554027
  atom      -3.94055958     -5.91679098    50.00000000 Mo
  atom      -2.36369583     -5.00649347    48.43105260 S
  atom      -2.36369583     -5.00649347    51.56894740 S
  atom      -5.51804665     -3.18575200    50.00000000 Mo
  atom      -3.94117314     -2.27543090    48.43108702 S
  atom      -3.94117314     -2.27543090    51.56891298 S
  atom      -7.09551374     -0.45471400    50.00000000 Mo
  atom      -5.51863924      0.45561209    48.43108913 S
  atom      -5.51863924      0.45561209    51.56891087 S
  atom      -8.67297579      2.27637859    50.00000000 Mo
  atom      -7.09609183      3.18666412    48.43107642 S
  atom      -7.09609183      3.18666412    51.56892358 S
  atom     -10.25043757      5.00742849    50.00000000 Mo
  atom      -8.67357264      5.91771717    48.43106805 S
  atom      -8.67357264      5.91771717    51.56893195 S
  atom      -0.78667385     -5.91680792    50.00000000 Mo
  atom       0.79020635     -5.00650247    48.43106454 S
  atom       0.79020635     -5.00650247    51.56893546 S
  atom      -2.36413352     -3.18575487    50.00000000 Mo
  atom      -0.78724858     -2.27543608    48.43108194 S
  atom      -0.78724858     -2.27543608    51.56891806 S
  atom      -3.94158634     -0.45468087    50.00000000 Mo
  atom      -2.36471354      0.45561925    48.43108621 S
  atom      -2.36471354      0.45561925    51.56891379 S
  atom      -5.51905056      2.27637300    50.00000000 Mo
  atom      -3.94218516      3.18666099    48.43106531 S
  atom      -3.94218516      3.18666099    51.56893469 S
  atom      -7.09655218      5.00742461    50.00000000 Mo
  atom      -5.51964982      5.91769726    48.43108538 S
  atom      -5.51964982      5.91769726    51.56891462 S
  atom       2.36725992     -5.91681341    50.00000000 Mo
  atom       3.94412599     -5.00649165    48.43107328 S
  atom       3.94412599     -5.00649165    51.56892672 S
  atom       0.78978890     -3.18576887    50.00000000 Mo
  atom       2.36667020     -2.27543852    48.43109698 S
  atom       2.36667020     -2.27543852    51.56890302 S
  atom      -0.78768506     -0.45470046    50.00000000 Mo
  atom       0.78920402      0.45560996    48.43109500 S
  atom       0.78920402      0.45560996    51.56890500 S
  atom      -2.36514871      2.27637523    50.00000000 Mo
  atom      -0.78826591      3.18666251    48.43107946 S
  atom      -0.78826591      3.18666251    51.56892054 S
  atom      -3.94259299      5.00740108    50.00000000 Mo
  atom      -2.36573196      5.91771935    48.43108523 S
  atom      -2.36573196      5.91771935    51.56891477 S
  atom       5.52118193     -5.91679299    50.00000000 Mo
  atom       7.09805297     -5.00648457    48.43107422 S
  atom       7.09805297     -5.00648457    51.56892578 S
  atom       3.94374083     -3.18575025    50.00000000 Mo
  atom       5.52059251     -2.27543142    48.43108481 S
  atom       5.52059251     -2.27543142    51.56891519 S
  atom       2.36624468     -0.45470148    50.00000000 Mo
  atom       3.94312160      0.45561511    48.43110616 S
  atom       3.94312160      0.45561511    51.56889384 S
  atom       0.78876501      2.27635844    50.00000000 Mo
  atom       2.36564599      3.18666075    48.43109184 S
  atom       2.36564599      3.18666075    51.56890816 S
  atom      -0.78869733      5.00740196    50.00000000 Mo
  atom       0.78818809      5.91770576    48.43110508 S
  atom       0.78818809      5.91770576    51.56889492 S
  atom       8.67509067     -5.91678893    50.00000000 Mo
  atom      10.25197923     -5.00650025    48.43106932 S
  atom      10.25197923     -5.00650025    51.56893068 S
  atom       7.09762792     -3.18573783    50.00000000 Mo
  atom       8.67451285     -2.27544953    48.43107590 S
  atom       8.67451285     -2.27544953    51.56892410 S
  atom       5.52016533     -0.45469408    50.00000000 Mo
  atom       7.09704551      0.45561140    48.43109009 S
  atom       7.09704551      0.45561140    51.56890991 S
  atom       3.94270955      2.27638667    50.00000000 Mo
  atom       5.51957875      3.18666676    48.43107514 S
  atom       5.51957875      3.18666676    51.56892486 S
  atom       2.36526250      5.00741901    50.00000000 Mo
  atom       3.94211739      5.91771290    48.43107634 S
  atom       3.94211739      5.91771290    51.56892366 S
  #
  # What follows is the current estimated Hessian matrix constructed by the BFGS algorithm.
  # This is NOT the true Hessian matrix of the system.
  
  -----------------------------------------------------------------------
  Completed first pass over input file geometry.in .
  -----------------------------------------------------------------------
  

  Basic array size parameters:
  | Number of species                 :        4
  | Number of atoms                   :       75
  | Number of lattice vectors         :        3
  | Max. basis fn. angular momentum   :        4
  | Max. atomic/ionic basis occupied n:        6
  | Max. number of basis fn. types    :        3
  | Max. radial fns per species/type  :       14
  | Max. logarithmic grid size        :     1483
  | Max. radial integration grid size :      143
  | Max. angular integration grid size:      434
  | Max. angular grid division number :        8
  | Radial grid for Hartree potential :     1483
  | Number of spin channels           :        2

------------------------------------------------------------
          Reading file control.in.
------------------------------------------------------------
  XC: Using PBE gradient-corrected functionals.
  Spin treatment: Spin density functional theory - collinear spins.
  Initial spin moment per atom:   1.0000
  Charge =   0.000000E+00: Neutral system requested explicitly.
  Scalar relativistic treatment of kinetic energy: on-site free-atom approximation to ZORA.
  Calculating density of states with
  | energy interval :-10.000000  0.000000
  | points & tetrahedron method :  2001
  Calculating angular-momentum projected DOS with 
  | energy interval :-10.000000  0.000000
  | points & tetrahedron :  2001
  Found k-point grid:         4         4         1
  Using dipole correction.
  Using libMBD for calculating MBD and TS energies
 
  Reading configuration options for species S                   .
  | Found nuclear charge :  16.0000
  | Found atomic mass :    32.0650000000000      amu
  | Found l_max for Hartree potential  :   6
  | Found cutoff potl. onset [A], width [A], scale factor :    4.00000    2.00000    1.00000
  | Threshold for basis-dependent cutoff potential is   0.100000E-03
  | Found data for basic radial integration grid :    44 points, outermost radius =    7.000 A
  | Found multiplier for basic radial grid :   2
  | Found angular grid specification: user-specified.
  | Specified grid contains     5 separate shells.
  | Check grid settings after all constraints further below.
  | Found free-atom valence shell :  3 s   2.000
  | Found free-atom valence shell :  3 p   4.000
  | Found free-ion valence shell :  3 s   1.000
  | Found free-ion valence shell :  3 p   3.000
  | Found ionic basis function :  3 d , default cutoff radius.
  | Found hydrogenic basis function :  2 p   1.800
  | Found hydrogenic basis function :  4 f   7.000
  | Found ionic basis function :  3 s , default cutoff radius.
  | Found hydrogenic basis function :  4 d   6.200
  | Found hydrogenic basis function :  5 g  10.800
  Species S                   : Missing cutoff potential type.
  Defaulting to exp(1/x)/(1-x)^2 type cutoff potential.
  Species S : No 'logarithmic' tag. Using default grid for free atom:
  | Default logarithmic grid data [bohr] : 0.1000E-03 0.1000E+03 0.1012E+01
  | Will include ionic basis functions of  2.0-fold positive S                    ion.
  Species S : On-site basis accuracy parameter (for Gram-Schmidt orthonormalisation) not specified.
  Using default value basis_acc =  0.1000000E-03.
  Species S                   : Using default innermost maximum threshold i_radial=  2 for radial functions.
  Species S                   : Default cutoff onset for free atom density etc. : 0.40000000E+01 AA.
  Species S                   : Basic radial grid will be enhanced according to radial_multiplier =   2, to contain    89 grid points.
 
  Reading configuration options for species Mo                  .
  | Found nuclear charge :  42.0000
  | Found atomic mass :    95.9400000000000      amu
  | Found l_max for Hartree potential  :   6
  | Found cutoff potl. onset [A], width [A], scale factor :    4.00000    2.00000    1.00000
  | Threshold for basis-dependent cutoff potential is   0.100000E-03
  | Found data for basic radial integration grid :    59 points, outermost radius =    7.000 A
  | Found multiplier for basic radial grid :   2
  | Found angular grid specification: user-specified.
  | Specified grid contains     6 separate shells.
  | Check grid settings after all constraints further below.
  | Found free-atom valence shell :  5 s   1.000
  | Found free-atom valence shell :  4 p   6.000
  | Found free-atom valence shell :  4 d   5.000
  | Found free-ion valence shell :  5 s   0.000
  | Found free-ion valence shell :  4 p   6.000
  | Found free-ion valence shell :  4 d   4.000
  | Found hydrogenic basis function :  4 f   8.400
  | Found hydrogenic basis function :  3 d   2.800
  | Found ionic basis function :  5 p , default cutoff radius.
  | Found hydrogenic basis function :  5 g  12.000
  | Found ionic basis function :  5 s , default cutoff radius.
  Species Mo                  : Missing cutoff potential type.
  Defaulting to exp(1/x)/(1-x)^2 type cutoff potential.
  Species Mo: No 'logarithmic' tag. Using default grid for free atom:
  | Default logarithmic grid data [bohr] : 0.1000E-03 0.1000E+03 0.1012E+01
  | Will include ionic basis functions of  2.0-fold positive Mo                   ion.
  Species Mo: On-site basis accuracy parameter (for Gram-Schmidt orthonormalisation) not specified.
  Using default value basis_acc =  0.1000000E-03.
  Species Mo                  : Using default innermost maximum threshold i_radial=  2 for radial functions.
  Species Mo                  : Default cutoff onset for free atom density etc. : 0.40000000E+01 AA.
  Species Mo                  : Basic radial grid will be enhanced according to radial_multiplier =   2, to contain   119 grid points.
 
  Reading configuration options for species W                   .
  | Found nuclear charge :  74.0000
  | Found atomic mass :    183.840000000000      amu
  | Found l_max for Hartree potential  :   6
  | Found cutoff potl. onset [A], width [A], scale factor :    4.00000    2.00000    1.00000
  | Threshold for basis-dependent cutoff potential is   0.100000E-03
  | Found data for basic radial integration grid :    71 points, outermost radius =    7.000 A
  | Found multiplier for basic radial grid :   2
  | Found angular grid specification: user-specified.
  | Specified grid contains     6 separate shells.
  | Check grid settings after all constraints further below.
  | Found free-atom valence shell :  6 s   2.000
  | Found free-atom valence shell :  5 p   6.000
  | Found free-atom valence shell :  5 d   4.000
  | Found free-atom valence shell :  4 f  14.000
  | Found free-ion valence shell :  6 s   1.000
  | Found free-ion valence shell :  5 p   6.000
  | Found free-ion valence shell :  5 d   3.000
  | Found free-ion valence shell :  4 f  14.000
  | Found hydrogenic basis function :  4 f   7.800
  | Found hydrogenic basis function :  4 d   5.800
  | Found ionic basis function :  6 p , default cutoff radius.
  | Found hydrogenic basis function :  5 g  12.400
  | Found ionic basis function :  6 s , default cutoff radius.
  Species W                   : Missing cutoff potential type.
  Defaulting to exp(1/x)/(1-x)^2 type cutoff potential.
  Species W : No 'logarithmic' tag. Using default grid for free atom:
  | Default logarithmic grid data [bohr] : 0.1000E-03 0.1000E+03 0.1012E+01
  | Will include ionic basis functions of  2.0-fold positive W                    ion.
  Species W : On-site basis accuracy parameter (for Gram-Schmidt orthonormalisation) not specified.
  Using default value basis_acc =  0.1000000E-03.
  Species W                   : Using default innermost maximum threshold i_radial=  2 for radial functions.
  Species W                   : Default cutoff onset for free atom density etc. : 0.40000000E+01 AA.
  Species W                   : Basic radial grid will be enhanced according to radial_multiplier =   2, to contain   143 grid points.
 
  Reading configuration options for species Se                  .
  | Found nuclear charge :  34.0000
  | Found atomic mass :    78.9600000000000      amu
  | Found l_max for Hartree potential  :   6
  | Found cutoff potl. onset [A], width [A], scale factor :    4.00000    2.00000    1.00000
  | Threshold for basis-dependent cutoff potential is   0.100000E-03
  | Found data for basic radial integration grid :    55 points, outermost radius =    7.000 A
  | Found multiplier for basic radial grid :   2
  | Found angular grid specification: user-specified.
  | Specified grid contains     5 separate shells.
  | Check grid settings after all constraints further below.
  | Found free-atom valence shell :  4 s   2.000
  | Found free-atom valence shell :  4 p   4.000
  | Found free-atom valence shell :  3 d  10.000
  | Found free-ion valence shell :  4 s   1.000
  | Found free-ion valence shell :  4 p   3.000
  | Found free-ion valence shell :  3 d  10.000
  | Found hydrogenic basis function :  3 d   4.300
  | Found hydrogenic basis function :  2 p   1.600
  | Found hydrogenic basis function :  4 f   7.200
  | Found ionic basis function :  4 s , default cutoff radius.
  Species Se                  : Missing cutoff potential type.
  Defaulting to exp(1/x)/(1-x)^2 type cutoff potential.
  Species Se: No 'logarithmic' tag. Using default grid for free atom:
  | Default logarithmic grid data [bohr] : 0.1000E-03 0.1000E+03 0.1012E+01
  | Will include ionic basis functions of  2.0-fold positive Se                   ion.
  Species Se: On-site basis accuracy parameter (for Gram-Schmidt orthonormalisation) not specified.
  Using default value basis_acc =  0.1000000E-03.
  Species Se                  : Using default innermost maximum threshold i_radial=  2 for radial functions.
  Species Se                  : Default cutoff onset for free atom density etc. : 0.40000000E+01 AA.
  Species Se                  : Basic radial grid will be enhanced according to radial_multiplier =   2, to contain   111 grid points.
 
  Finished reading input file 'control.in'.
 
------------------------------------------------------------


------------------------------------------------------------
          Reading geometry description geometry.in.
------------------------------------------------------------
  Vacuum level in z-axis :  -0.347230E+00
  | The smallest distance between any two atoms is         2.40344341 AA.
  | The first atom of this pair is atom number                     36 .
  | The second atom of this pair is atom number                    52 .
  | Wigner-Seitz cell of the first atom image           0     0     0 .
  | (The Wigner-Seitz cell of the second atom is 0 0 0  by definition.)

  Symmetry information by spglib:
  | Precision set to  0.1E-04
  | Number of Operations  : 2
  | Space group           : 6
  | International         : Pm  J
  | Schoenflies           : Cs^1
  Input structure read successfully.
  The structure contains       75 atoms,  and a total of       1850.000 electrons.

  Input geometry:
  | Unit cell:
  |       15.76960250        0.00000000        0.00000000
  |       -7.88732950       13.65525595        0.00000000
  |        0.00000000        0.00000000       99.30554027
  | Atomic structure:
  |       Atom                x [A]            y [A]            z [A]
  |    1: Species Mo           -3.94055958       -5.91679098       50.00000000
  |    2: Species S            -2.36369583       -5.00649347       48.43105260
  |    3: Species S            -2.36369583       -5.00649347       51.56894740
  |    4: Species Mo           -5.51804665       -3.18575200       50.00000000
  |    5: Species S            -3.94117314       -2.27543090       48.43108702
  |    6: Species S            -3.94117314       -2.27543090       51.56891298
  |    7: Species Mo           -7.09551374       -0.45471400       50.00000000
  |    8: Species S            -5.51863924        0.45561209       48.43108913
  |    9: Species S            -5.51863924        0.45561209       51.56891087
  |   10: Species Mo           -8.67297579        2.27637859       50.00000000
  |   11: Species S            -7.09609183        3.18666412       48.43107642
  |   12: Species S            -7.09609183        3.18666412       51.56892358
  |   13: Species Mo          -10.25043757        5.00742849       50.00000000
  |   14: Species S            -8.67357264        5.91771717       48.43106805
  |   15: Species S            -8.67357264        5.91771717       51.56893195
  |   16: Species Mo           -0.78667385       -5.91680792       50.00000000
  |   17: Species S             0.79020635       -5.00650247       48.43106454
  |   18: Species S             0.79020635       -5.00650247       51.56893546
  |   19: Species Mo           -2.36413352       -3.18575487       50.00000000
  |   20: Species S            -0.78724858       -2.27543608       48.43108194
  |   21: Species S            -0.78724858       -2.27543608       51.56891806
  |   22: Species Mo           -3.94158634       -0.45468087       50.00000000
  |   23: Species S            -2.36471354        0.45561925       48.43108621
  |   24: Species S            -2.36471354        0.45561925       51.56891379
  |   25: Species Mo           -5.51905056        2.27637300       50.00000000
  |   26: Species S            -3.94218516        3.18666099       48.43106531
  |   27: Species S            -3.94218516        3.18666099       51.56893469
  |   28: Species Mo           -7.09655218        5.00742461       50.00000000
  |   29: Species S            -5.51964982        5.91769726       48.43108538
  |   30: Species S            -5.51964982        5.91769726       51.56891462
  |   31: Species Mo            2.36725992       -5.91681341       50.00000000
  |   32: Species S             3.94412599       -5.00649165       48.43107328
  |   33: Species S             3.94412599       -5.00649165       51.56892672
  |   34: Species Mo            0.78978890       -3.18576887       50.00000000
  |   35: Species S             2.36667020       -2.27543852       48.43109698
  |   36: Species S             2.36667020       -2.27543852       51.56890302
  |   37: Species Mo           -0.78768506       -0.45470046       50.00000000
  |   38: Species S             0.78920402        0.45560996       48.43109500
  |   39: Species S             0.78920402        0.45560996       51.56890500
  |   40: Species Mo           -2.36514871        2.27637523       50.00000000
  |   41: Species S            -0.78826591        3.18666251       48.43107946
  |   42: Species S            -0.78826591        3.18666251       51.56892054
  |   43: Species Mo           -3.94259299        5.00740108       50.00000000
  |   44: Species S            -2.36573196        5.91771935       48.43108523
  |   45: Species S            -2.36573196        5.91771935       51.56891477
  |   46: Species Mo            5.52118193       -5.91679299       50.00000000
  |   47: Species S             7.09805297       -5.00648457       48.43107422
  |   48: Species S             7.09805297       -5.00648457       51.56892578
  |   49: Species Mo            3.94374083       -3.18575025       50.00000000
  |   50: Species S             5.52059251       -2.27543142       48.43108481
  |   51: Species S             5.52059251       -2.27543142       51.56891519
  |   52: Species Mo            2.36624468       -0.45470148       50.00000000
  |   53: Species S             3.94312160        0.45561511       48.43110616
  |   54: Species S             3.94312160        0.45561511       51.56889384
  |   55: Species Mo            0.78876501        2.27635844       50.00000000
  |   56: Species S             2.36564599        3.18666075       48.43109184
  |   57: Species S             2.36564599        3.18666075       51.56890816
  |   58: Species Mo           -0.78869733        5.00740196       50.00000000
  |   59: Species S             0.78818809        5.91770576       48.43110508
  |   60: Species S             0.78818809        5.91770576       51.56889492
  |   61: Species Mo            8.67509067       -5.91678893       50.00000000
  |   62: Species S            10.25197923       -5.00650025       48.43106932
  |   63: Species S            10.25197923       -5.00650025       51.56893068
  |   64: Species Mo            7.09762792       -3.18573783       50.00000000
  |   65: Species S             8.67451285       -2.27544953       48.43107590
  |   66: Species S             8.67451285       -2.27544953       51.56892410
  |   67: Species Mo            5.52016533       -0.45469408       50.00000000
  |   68: Species S             7.09704551        0.45561140       48.43109009
  |   69: Species S             7.09704551        0.45561140       51.56890991
  |   70: Species Mo            3.94270955        2.27638667       50.00000000
  |   71: Species S             5.51957875        3.18666676       48.43107514
  |   72: Species S             5.51957875        3.18666676       51.56892486
  |   73: Species Mo            2.36526250        5.00741901       50.00000000
  |   74: Species S             3.94211739        5.91771290       48.43107634
  |   75: Species S             3.94211739        5.91771290       51.56892366

  Lattice parameters for 3D lattice (in Angstroms) :    15.769602   15.769464   99.305540
  Angle(s) between unit vectors (in degrees)       :    90.000000   90.000000  120.010899


  Quantities derived from the lattice vectors:
  | Reciprocal lattice vector 1:  0.398437  0.230138  0.000000
  | Reciprocal lattice vector 2:  0.000000  0.460129  0.000000
  | Reciprocal lattice vector 3:  0.000000  0.000000  0.063271
  | Unit cell volume                               :   0.213843E+05  A^3

  Fractional coordinates:
                         L1                L2                L3
       atom_frac        -0.46660157       -0.43329770        0.50349658  Mo
       atom_frac        -0.33326561       -0.36663491        0.48769739  S
       atom_frac        -0.33326561       -0.36663491        0.51929577  S
       atom_frac        -0.46660336       -0.23329859        0.50349658  Mo
       atom_frac        -0.33326591       -0.16663407        0.48769773  S
       atom_frac        -0.33326591       -0.16663407        0.51929543  S
       atom_frac        -0.46660392       -0.03329956        0.50349658  Mo
       atom_frac        -0.33326623        0.03336533        0.48769776  S
       atom_frac        -0.33326623        0.03336533        0.51929541  S
       atom_frac        -0.46660216        0.16670347        0.50349658  Mo
       atom_frac        -0.33326535        0.23336539        0.48769763  S
       atom_frac        -0.33326535        0.23336539        0.51929553  S
       atom_frac        -0.46660194        0.36670338        0.50349658  Mo
       atom_frac        -0.33326623        0.43336553        0.48769754  S
       atom_frac        -0.33326623        0.43336553        0.51929562  S
       atom_frac        -0.26660440       -0.43329894        0.50349658  Mo
       atom_frac        -0.13326710       -0.36663556        0.48769751  S
       atom_frac        -0.13326710       -0.36663556        0.51929565  S
       atom_frac        -0.26660393       -0.23329880        0.50349658  Mo
       atom_frac        -0.13326584       -0.16663445        0.48769768  S
       atom_frac        -0.13326584       -0.16663445        0.51929548  S
       atom_frac        -0.26660227       -0.03329713        0.50349658  Mo
       atom_frac        -0.13326563        0.03336585        0.48769773  S
       atom_frac        -0.13326563        0.03336585        0.51929544  S
       atom_frac        -0.26660206        0.16670306        0.50349658  Mo
       atom_frac        -0.13326634        0.23336516        0.48769752  S
       atom_frac        -0.13326634        0.23336516        0.51929565  S
       atom_frac        -0.26660431        0.36670309        0.50349658  Mo
       atom_frac        -0.13326681        0.43336407        0.48769772  S
       atom_frac        -0.13326681        0.43336407        0.51929544  S
       atom_frac        -0.06660376       -0.43329934        0.50349658  Mo
       atom_frac         0.06673324       -0.36663477        0.48769760  S
       atom_frac         0.06673324       -0.36663477        0.51929557  S
       atom_frac        -0.06660432       -0.23329983        0.50349658  Mo
       atom_frac         0.06673396       -0.16663463        0.48769783  S
       atom_frac         0.06673396       -0.16663463        0.51929533  S
       atom_frac        -0.06660420       -0.03329857        0.50349658  Mo
       atom_frac         0.06673384        0.03336517        0.48769781  S
       atom_frac         0.06673384        0.03336517        0.51929535  S
       atom_frac        -0.06660316        0.16670323        0.50349658  Mo
       atom_frac         0.06673363        0.23336527        0.48769766  S
       atom_frac         0.06673363        0.23336527        0.51929550  S
       atom_frac        -0.06660272        0.36670137        0.50349658  Mo
       atom_frac         0.06673383        0.43336569        0.48769772  S
       atom_frac         0.06673383        0.43336569        0.51929545  S
       atom_frac         0.13339709       -0.43329785        0.50349658  Mo
       atom_frac         0.26673391       -0.36663425        0.48769761  S
       atom_frac         0.26673391       -0.36663425        0.51929556  S
       atom_frac         0.13339835       -0.23329846        0.50349658  Mo
       atom_frac         0.26673433       -0.16663411        0.48769771  S
       atom_frac         0.26673433       -0.16663411        0.51929545  S
       atom_frac         0.13339634       -0.03329864        0.50349658  Mo
       atom_frac         0.26673384        0.03336555        0.48769793  S
       atom_frac         0.26673384        0.03336555        0.51929523  S
       atom_frac         0.13339579        0.16670200        0.50349658  Mo
       atom_frac         0.26673302        0.23336514        0.48769778  S
       atom_frac         0.26673302        0.23336514        0.51929538  S
       atom_frac         0.13339574        0.36670144        0.50349658  Mo
       atom_frac         0.26673330        0.43336469        0.48769792  S
       atom_frac         0.26673330        0.43336469        0.51929525  S
       atom_frac         0.33339649       -0.43329755        0.50349658  Mo
       atom_frac         0.46673371       -0.36663540        0.48769756  S
       atom_frac         0.46673371       -0.36663540        0.51929561  S
       atom_frac         0.33339669       -0.23329756        0.50349658  Mo
       atom_frac         0.46673366       -0.16663544        0.48769762  S
       atom_frac         0.46673366       -0.16663544        0.51929554  S
       atom_frac         0.33339662       -0.03329810        0.50349658  Mo
       atom_frac         0.46673392        0.03336528        0.48769777  S
       atom_frac         0.46673392        0.03336528        0.51929540  S
       atom_frac         0.33339835        0.16670406        0.50349658  Mo
       atom_frac         0.46673402        0.23336558        0.48769761  S
       atom_frac         0.46673402        0.23336558        0.51929555  S
       atom_frac         0.33339885        0.36670268        0.50349658  Mo
       atom_frac         0.46673412        0.43336521        0.48769763  S
       atom_frac         0.46673412        0.43336521        0.51929553  S

  Initial moments and charges:
  |  Atom   Moment         Charge        Species
  |     1   0.100000E+01   0.000000E+00   Mo
  |     2   0.100000E+01   0.000000E+00   S
  |     3   0.100000E+01   0.000000E+00   S
  |     4   0.100000E+01   0.000000E+00   Mo
  |     5   0.100000E+01   0.000000E+00   S
  |     6   0.100000E+01   0.000000E+00   S
  |     7   0.100000E+01   0.000000E+00   Mo
  |     8   0.100000E+01   0.000000E+00   S
  |     9   0.100000E+01   0.000000E+00   S
  |    10   0.100000E+01   0.000000E+00   Mo
  |    11   0.100000E+01   0.000000E+00   S
  |    12   0.100000E+01   0.000000E+00   S
  |    13   0.100000E+01   0.000000E+00   Mo
  |    14   0.100000E+01   0.000000E+00   S
  |    15   0.100000E+01   0.000000E+00   S
  |    16   0.100000E+01   0.000000E+00   Mo
  |    17   0.100000E+01   0.000000E+00   S
  |    18   0.100000E+01   0.000000E+00   S
  |    19   0.100000E+01   0.000000E+00   Mo
  |    20   0.100000E+01   0.000000E+00   S
  |    21   0.100000E+01   0.000000E+00   S
  |    22   0.100000E+01   0.000000E+00   Mo
  |    23   0.100000E+01   0.000000E+00   S
  |    24   0.100000E+01   0.000000E+00   S
  |    25   0.100000E+01   0.000000E+00   Mo
  |    26   0.100000E+01   0.000000E+00   S
  |    27   0.100000E+01   0.000000E+00   S
  |    28   0.100000E+01   0.000000E+00   Mo
  |    29   0.100000E+01   0.000000E+00   S
  |    30   0.100000E+01   0.000000E+00   S
  |    31   0.100000E+01   0.000000E+00   Mo
  |    32   0.100000E+01   0.000000E+00   S
  |    33   0.100000E+01   0.000000E+00   S
  |    34   0.100000E+01   0.000000E+00   Mo
  |    35   0.100000E+01   0.000000E+00   S
  |    36   0.100000E+01   0.000000E+00   S
  |    37   0.100000E+01   0.000000E+00   Mo
  |    38   0.100000E+01   0.000000E+00   S
  |    39   0.100000E+01   0.000000E+00   S
  |    40   0.100000E+01   0.000000E+00   Mo
  |    41   0.100000E+01   0.000000E+00   S
  |    42   0.100000E+01   0.000000E+00   S
  |    43   0.100000E+01   0.000000E+00   Mo
  |    44   0.100000E+01   0.000000E+00   S
  |    45   0.100000E+01   0.000000E+00   S
  |    46   0.100000E+01   0.000000E+00   Mo
  |    47   0.100000E+01   0.000000E+00   S
  |    48   0.100000E+01   0.000000E+00   S
  |    49   0.100000E+01   0.000000E+00   Mo
  |    50   0.100000E+01   0.000000E+00   S
  |    51   0.100000E+01   0.000000E+00   S
  |    52   0.100000E+01   0.000000E+00   Mo
  |    53   0.100000E+01   0.000000E+00   S
  |    54   0.100000E+01   0.000000E+00   S
  |    55   0.100000E+01   0.000000E+00   Mo
  |    56   0.100000E+01   0.000000E+00   S
  |    57   0.100000E+01   0.000000E+00   S
  |    58   0.100000E+01   0.000000E+00   Mo
  |    59   0.100000E+01   0.000000E+00   S
  |    60   0.100000E+01   0.000000E+00   S
  |    61   0.100000E+01   0.000000E+00   Mo
  |    62   0.100000E+01   0.000000E+00   S
  |    63   0.100000E+01   0.000000E+00   S
  |    64   0.100000E+01   0.000000E+00   Mo
  |    65   0.100000E+01   0.000000E+00   S
  |    66   0.100000E+01   0.000000E+00   S
  |    67   0.100000E+01   0.000000E+00   Mo
  |    68   0.100000E+01   0.000000E+00   S
  |    69   0.100000E+01   0.000000E+00   S
  |    70   0.100000E+01   0.000000E+00   Mo
  |    71   0.100000E+01   0.000000E+00   S
  |    72   0.100000E+01   0.000000E+00   S
  |    73   0.100000E+01   0.000000E+00   Mo
  |    74   0.100000E+01   0.000000E+00   S
  |    75   0.100000E+01   0.000000E+00   S

 
  Finished reading input file 'control.in'.
 

------------------------------------------------------------
          Reading geometry description geometry.in.
------------------------------------------------------------
 
  Consistency checks for stacksize environment parameter are next.
 
  | Maximum stacksize for task 0: unlimited
  | Maximum stacksize for task 1: unlimited
  | Maximum stacksize for task 2: unlimited
  | Maximum stacksize for task 3: unlimited
  | Maximum stacksize for task 4: unlimited
  | Maximum stacksize for task 5: unlimited
  | Maximum stacksize for task 6: unlimited
  | Maximum stacksize for task 7: unlimited
  | Maximum stacksize for task 8: unlimited
  | Maximum stacksize for task 9: unlimited
  | Maximum stacksize for task 10: unlimited
  | Maximum stacksize for task 11: unlimited
  | Maximum stacksize for task 12: unlimited
  | Maximum stacksize for task 13: unlimited
  | Maximum stacksize for task 14: unlimited
  | Maximum stacksize for task 15: unlimited
  | Maximum stacksize for task 16: unlimited
  | Maximum stacksize for task 17: unlimited
  | Maximum stacksize for task 18: unlimited
  | Maximum stacksize for task 19: unlimited
  | Maximum stacksize for task 20: unlimited
  | Maximum stacksize for task 21: unlimited
  | Maximum stacksize for task 22: unlimited
  | Maximum stacksize for task 23: unlimited
  | Maximum stacksize for task 24: unlimited
  | Maximum stacksize for task 25: unlimited
  | Maximum stacksize for task 26: unlimited
  | Maximum stacksize for task 27: unlimited
  | Maximum stacksize for task 28: unlimited
  | Maximum stacksize for task 29: unlimited
  | Maximum stacksize for task 30: unlimited
  | Maximum stacksize for task 31: unlimited
  | Maximum stacksize for task 32: unlimited
  | Maximum stacksize for task 33: unlimited
  | Maximum stacksize for task 34: unlimited
  | Maximum stacksize for task 35: unlimited
  | Maximum stacksize for task 36: unlimited
  | Maximum stacksize for task 37: unlimited
  | Maximum stacksize for task 38: unlimited
  | Maximum stacksize for task 39: unlimited
  | Maximum stacksize for task 40: unlimited
  | Maximum stacksize for task 41: unlimited
  | Maximum stacksize for task 42: unlimited
  | Maximum stacksize for task 43: unlimited
  | Maximum stacksize for task 44: unlimited
  | Maximum stacksize for task 45: unlimited
  | Maximum stacksize for task 46: unlimited
  | Maximum stacksize for task 47: unlimited
  | Maximum stacksize for task 48: unlimited
  | Maximum stacksize for task 49: unlimited
  | Maximum stacksize for task 50: unlimited
  | Maximum stacksize for task 51: unlimited
  | Maximum stacksize for task 52: unlimited
  | Maximum stacksize for task 53: unlimited
  | Maximum stacksize for task 54: unlimited
  | Maximum stacksize for task 55: unlimited
  | Maximum stacksize for task 56: unlimited
  | Maximum stacksize for task 57: unlimited
  | Maximum stacksize for task 58: unlimited
  | Maximum stacksize for task 59: unlimited
  | Maximum stacksize for task 60: unlimited
  | Maximum stacksize for task 61: unlimited
  | Maximum stacksize for task 62: unlimited
  | Maximum stacksize for task 63: unlimited
  | Maximum stacksize for task 64: unlimited
  | Maximum stacksize for task 65: unlimited
  | Maximum stacksize for task 66: unlimited
  | Maximum stacksize for task 67: unlimited
  | Maximum stacksize for task 68: unlimited
  | Maximum stacksize for task 69: unlimited
  | Maximum stacksize for task 70: unlimited
  | Maximum stacksize for task 71: unlimited
  | Maximum stacksize for task 72: unlimited
  | Maximum stacksize for task 73: unlimited
  | Maximum stacksize for task 74: unlimited
  | Maximum stacksize for task 75: unlimited
  | Maximum stacksize for task 76: unlimited
  | Maximum stacksize for task 77: unlimited
  | Maximum stacksize for task 78: unlimited
  | Maximum stacksize for task 79: unlimited
  | Maximum stacksize for task 80: unlimited
  | Maximum stacksize for task 81: unlimited
  | Maximum stacksize for task 82: unlimited
  | Maximum stacksize for task 83: unlimited
  | Maximum stacksize for task 84: unlimited
  | Maximum stacksize for task 85: unlimited
  | Maximum stacksize for task 86: unlimited
  | Maximum stacksize for task 87: unlimited
  | Maximum stacksize for task 88: unlimited
  | Maximum stacksize for task 89: unlimited
  | Maximum stacksize for task 90: unlimited
  | Maximum stacksize for task 91: unlimited
  | Maximum stacksize for task 92: unlimited
  | Maximum stacksize for task 93: unlimited
  | Maximum stacksize for task 94: unlimited
  | Maximum stacksize for task 95: unlimited
  | Maximum stacksize for task 96: unlimited
  | Maximum stacksize for task 97: unlimited
  | Maximum stacksize for task 98: unlimited
  | Maximum stacksize for task 99: unlimited
  | Maximum stacksize for task 100: unlimited
  | Maximum stacksize for task 101: unlimited
  | Maximum stacksize for task 102: unlimited
  | Maximum stacksize for task 103: unlimited
  | Maximum stacksize for task 104: unlimited
  | Maximum stacksize for task 105: unlimited
  | Maximum stacksize for task 106: unlimited
  | Maximum stacksize for task 107: unlimited
  | Maximum stacksize for task 108: unlimited
  | Maximum stacksize for task 109: unlimited
  | Maximum stacksize for task 110: unlimited
  | Maximum stacksize for task 111: unlimited
  | Maximum stacksize for task 112: unlimited
  | Maximum stacksize for task 113: unlimited
  | Maximum stacksize for task 114: unlimited
  | Maximum stacksize for task 115: unlimited
  | Maximum stacksize for task 116: unlimited
  | Maximum stacksize for task 117: unlimited
  | Maximum stacksize for task 118: unlimited
  | Maximum stacksize for task 119: unlimited
  | Maximum stacksize for task 120: unlimited
  | Maximum stacksize for task 121: unlimited
  | Maximum stacksize for task 122: unlimited
  | Maximum stacksize for task 123: unlimited
  | Maximum stacksize for task 124: unlimited
  | Maximum stacksize for task 125: unlimited
  | Maximum stacksize for task 126: unlimited
  | Maximum stacksize for task 127: unlimited
  | Maximum stacksize for task 128: unlimited
  | Maximum stacksize for task 129: unlimited
  | Maximum stacksize for task 130: unlimited
  | Maximum stacksize for task 131: unlimited
  | Maximum stacksize for task 132: unlimited
  | Maximum stacksize for task 133: unlimited
  | Maximum stacksize for task 134: unlimited
  | Maximum stacksize for task 135: unlimited
  | Maximum stacksize for task 136: unlimited
  | Maximum stacksize for task 137: unlimited
  | Maximum stacksize for task 138: unlimited
  | Maximum stacksize for task 139: unlimited
  | Maximum stacksize for task 140: unlimited
  | Maximum stacksize for task 141: unlimited
  | Maximum stacksize for task 142: unlimited
  | Maximum stacksize for task 143: unlimited
  | Maximum stacksize for task 144: unlimited
  | Maximum stacksize for task 145: unlimited
  | Maximum stacksize for task 146: unlimited
  | Maximum stacksize for task 147: unlimited
  | Maximum stacksize for task 148: unlimited
  | Maximum stacksize for task 149: unlimited
  | Maximum stacksize for task 150: unlimited
  | Maximum stacksize for task 151: unlimited
  | Maximum stacksize for task 152: unlimited
  | Maximum stacksize for task 153: unlimited
  | Maximum stacksize for task 154: unlimited
  | Maximum stacksize for task 155: unlimited
  | Maximum stacksize for task 156: unlimited
  | Maximum stacksize for task 157: unlimited
  | Maximum stacksize for task 158: unlimited
  | Maximum stacksize for task 159: unlimited
  | Maximum stacksize for task 160: unlimited
  | Maximum stacksize for task 161: unlimited
  | Maximum stacksize for task 162: unlimited
  | Maximum stacksize for task 163: unlimited
  | Maximum stacksize for task 164: unlimited
  | Maximum stacksize for task 165: unlimited
  | Maximum stacksize for task 166: unlimited
  | Maximum stacksize for task 167: unlimited
  | Maximum stacksize for task 168: unlimited
  | Maximum stacksize for task 169: unlimited
  | Maximum stacksize for task 170: unlimited
  | Maximum stacksize for task 171: unlimited
  | Maximum stacksize for task 172: unlimited
  | Maximum stacksize for task 173: unlimited
  | Maximum stacksize for task 174: unlimited
  | Maximum stacksize for task 175: unlimited
  | Maximum stacksize for task 176: unlimited
  | Maximum stacksize for task 177: unlimited
  | Maximum stacksize for task 178: unlimited
  | Maximum stacksize for task 179: unlimited
  | Maximum stacksize for task 180: unlimited
  | Maximum stacksize for task 181: unlimited
  | Maximum stacksize for task 182: unlimited
  | Maximum stacksize for task 183: unlimited
  | Maximum stacksize for task 184: unlimited
  | Maximum stacksize for task 185: unlimited
  | Maximum stacksize for task 186: unlimited
  | Maximum stacksize for task 187: unlimited
  | Maximum stacksize for task 188: unlimited
  | Maximum stacksize for task 189: unlimited
  | Maximum stacksize for task 190: unlimited
  | Maximum stacksize for task 191: unlimited
  | Maximum stacksize for task 192: unlimited
  | Maximum stacksize for task 193: unlimited
  | Maximum stacksize for task 194: unlimited
  | Maximum stacksize for task 195: unlimited
  | Maximum stacksize for task 196: unlimited
  | Maximum stacksize for task 197: unlimited
  | Maximum stacksize for task 198: unlimited
  | Maximum stacksize for task 199: unlimited
  | Maximum stacksize for task 200: unlimited
  | Maximum stacksize for task 201: unlimited
  | Maximum stacksize for task 202: unlimited
  | Maximum stacksize for task 203: unlimited
  | Maximum stacksize for task 204: unlimited
  | Maximum stacksize for task 205: unlimited
  | Maximum stacksize for task 206: unlimited
  | Maximum stacksize for task 207: unlimited
  | Maximum stacksize for task 208: unlimited
  | Maximum stacksize for task 209: unlimited
  | Maximum stacksize for task 210: unlimited
  | Maximum stacksize for task 211: unlimited
  | Maximum stacksize for task 212: unlimited
  | Maximum stacksize for task 213: unlimited
  | Maximum stacksize for task 214: unlimited
  | Maximum stacksize for task 215: unlimited
  | Maximum stacksize for task 216: unlimited
  | Maximum stacksize for task 217: unlimited
  | Maximum stacksize for task 218: unlimited
  | Maximum stacksize for task 219: unlimited
  | Maximum stacksize for task 220: unlimited
  | Maximum stacksize for task 221: unlimited
  | Maximum stacksize for task 222: unlimited
  | Maximum stacksize for task 223: unlimited
  | Maximum stacksize for task 224: unlimited
  | Maximum stacksize for task 225: unlimited
  | Maximum stacksize for task 226: unlimited
  | Maximum stacksize for task 227: unlimited
  | Maximum stacksize for task 228: unlimited
  | Maximum stacksize for task 229: unlimited
  | Maximum stacksize for task 230: unlimited
  | Maximum stacksize for task 231: unlimited
  | Maximum stacksize for task 232: unlimited
  | Maximum stacksize for task 233: unlimited
  | Maximum stacksize for task 234: unlimited
  | Maximum stacksize for task 235: unlimited
  | Maximum stacksize for task 236: unlimited
  | Maximum stacksize for task 237: unlimited
  | Maximum stacksize for task 238: unlimited
  | Maximum stacksize for task 239: unlimited
  | Maximum stacksize for task 240: unlimited
  | Maximum stacksize for task 241: unlimited
  | Maximum stacksize for task 242: unlimited
  | Maximum stacksize for task 243: unlimited
  | Maximum stacksize for task 244: unlimited
  | Maximum stacksize for task 245: unlimited
  | Maximum stacksize for task 246: unlimited
  | Maximum stacksize for task 247: unlimited
  | Maximum stacksize for task 248: unlimited
  | Maximum stacksize for task 249: unlimited
  | Maximum stacksize for task 250: unlimited
  | Maximum stacksize for task 251: unlimited
  | Maximum stacksize for task 252: unlimited
  | Maximum stacksize for task 253: unlimited
  | Maximum stacksize for task 254: unlimited
  | Maximum stacksize for task 255: unlimited
  | Maximum stacksize for task 256: unlimited
  | Maximum stacksize for task 257: unlimited
  | Maximum stacksize for task 258: unlimited
  | Maximum stacksize for task 259: unlimited
  | Maximum stacksize for task 260: unlimited
  | Maximum stacksize for task 261: unlimited
  | Maximum stacksize for task 262: unlimited
  | Maximum stacksize for task 263: unlimited
  | Maximum stacksize for task 264: unlimited
  | Maximum stacksize for task 265: unlimited
  | Maximum stacksize for task 266: unlimited
  | Maximum stacksize for task 267: unlimited
  | Maximum stacksize for task 268: unlimited
  | Maximum stacksize for task 269: unlimited
  | Maximum stacksize for task 270: unlimited
  | Maximum stacksize for task 271: unlimited
  | Maximum stacksize for task 272: unlimited
  | Maximum stacksize for task 273: unlimited
  | Maximum stacksize for task 274: unlimited
  | Maximum stacksize for task 275: unlimited
  | Maximum stacksize for task 276: unlimited
  | Maximum stacksize for task 277: unlimited
  | Maximum stacksize for task 278: unlimited
  | Maximum stacksize for task 279: unlimited
  | Maximum stacksize for task 280: unlimited
  | Maximum stacksize for task 281: unlimited
  | Maximum stacksize for task 282: unlimited
  | Maximum stacksize for task 283: unlimited
  | Maximum stacksize for task 284: unlimited
  | Maximum stacksize for task 285: unlimited
  | Maximum stacksize for task 286: unlimited
  | Maximum stacksize for task 287: unlimited
  | Current stacksize for task 0: unlimited
  | Current stacksize for task 1: unlimited
  | Current stacksize for task 2: unlimited
  | Current stacksize for task 3: unlimited
  | Current stacksize for task 4: unlimited
  | Current stacksize for task 5: unlimited
  | Current stacksize for task 6: unlimited
  | Current stacksize for task 7: unlimited
  | Current stacksize for task 8: unlimited
  | Current stacksize for task 9: unlimited
  | Current stacksize for task 10: unlimited
  | Current stacksize for task 11: unlimited
  | Current stacksize for task 12: unlimited
  | Current stacksize for task 13: unlimited
  | Current stacksize for task 14: unlimited
  | Current stacksize for task 15: unlimited
  | Current stacksize for task 16: unlimited
  | Current stacksize for task 17: unlimited
  | Current stacksize for task 18: unlimited
  | Current stacksize for task 19: unlimited
  | Current stacksize for task 20: unlimited
  | Current stacksize for task 21: unlimited
  | Current stacksize for task 22: unlimited
  | Current stacksize for task 23: unlimited
  | Current stacksize for task 24: unlimited
  | Current stacksize for task 25: unlimited
  | Current stacksize for task 26: unlimited
  | Current stacksize for task 27: unlimited
  | Current stacksize for task 28: unlimited
  | Current stacksize for task 29: unlimited
  | Current stacksize for task 30: unlimited
  | Current stacksize for task 31: unlimited
  | Current stacksize for task 32: unlimited
  | Current stacksize for task 33: unlimited
  | Current stacksize for task 34: unlimited
  | Current stacksize for task 35: unlimited
  | Current stacksize for task 36: unlimited
  | Current stacksize for task 37: unlimited
  | Current stacksize for task 38: unlimited
  | Current stacksize for task 39: unlimited
  | Current stacksize for task 40: unlimited
  | Current stacksize for task 41: unlimited
  | Current stacksize for task 42: unlimited
  | Current stacksize for task 43: unlimited
  | Current stacksize for task 44: unlimited
  | Current stacksize for task 45: unlimited
  | Current stacksize for task 46: unlimited
  | Current stacksize for task 47: unlimited
  | Current stacksize for task 48: unlimited
  | Current stacksize for task 49: unlimited
  | Current stacksize for task 50: unlimited
  | Current stacksize for task 51: unlimited
  | Current stacksize for task 52: unlimited
  | Current stacksize for task 53: unlimited
  | Current stacksize for task 54: unlimited
  | Current stacksize for task 55: unlimited
  | Current stacksize for task 56: unlimited
  | Current stacksize for task 57: unlimited
  | Current stacksize for task 58: unlimited
  | Current stacksize for task 59: unlimited
  | Current stacksize for task 60: unlimited
  | Current stacksize for task 61: unlimited
  | Current stacksize for task 62: unlimited
  | Current stacksize for task 63: unlimited
  | Current stacksize for task 64: unlimited
  | Current stacksize for task 65: unlimited
  | Current stacksize for task 66: unlimited
  | Current stacksize for task 67: unlimited
  | Current stacksize for task 68: unlimited
  | Current stacksize for task 69: unlimited
  | Current stacksize for task 70: unlimited
  | Current stacksize for task 71: unlimited
  | Current stacksize for task 72: unlimited
  | Current stacksize for task 73: unlimited
  | Current stacksize for task 74: unlimited
  | Current stacksize for task 75: unlimited
  | Current stacksize for task 76: unlimited
  | Current stacksize for task 77: unlimited
  | Current stacksize for task 78: unlimited
  | Current stacksize for task 79: unlimited
  | Current stacksize for task 80: unlimited
  | Current stacksize for task 81: unlimited
  | Current stacksize for task 82: unlimited
  | Current stacksize for task 83: unlimited
  | Current stacksize for task 84: unlimited
  | Current stacksize for task 85: unlimited
  | Current stacksize for task 86: unlimited
  | Current stacksize for task 87: unlimited
  | Current stacksize for task 88: unlimited
  | Current stacksize for task 89: unlimited
  | Current stacksize for task 90: unlimited
  | Current stacksize for task 91: unlimited
  | Current stacksize for task 92: unlimited
  | Current stacksize for task 93: unlimited
  | Current stacksize for task 94: unlimited
  | Current stacksize for task 95: unlimited
  | Current stacksize for task 96: unlimited
  | Current stacksize for task 97: unlimited
  | Current stacksize for task 98: unlimited
  | Current stacksize for task 99: unlimited
  | Current stacksize for task 100: unlimited
  | Current stacksize for task 101: unlimited
  | Current stacksize for task 102: unlimited
  | Current stacksize for task 103: unlimited
  | Current stacksize for task 104: unlimited
  | Current stacksize for task 105: unlimited
  | Current stacksize for task 106: unlimited
  | Current stacksize for task 107: unlimited
  | Current stacksize for task 108: unlimited
  | Current stacksize for task 109: unlimited
  | Current stacksize for task 110: unlimited
  | Current stacksize for task 111: unlimited
  | Current stacksize for task 112: unlimited
  | Current stacksize for task 113: unlimited
  | Current stacksize for task 114: unlimited
  | Current stacksize for task 115: unlimited
  | Current stacksize for task 116: unlimited
  | Current stacksize for task 117: unlimited
  | Current stacksize for task 118: unlimited
  | Current stacksize for task 119: unlimited
  | Current stacksize for task 120: unlimited
  | Current stacksize for task 121: unlimited
  | Current stacksize for task 122: unlimited
  | Current stacksize for task 123: unlimited
  | Current stacksize for task 124: unlimited
  | Current stacksize for task 125: unlimited
  | Current stacksize for task 126: unlimited
  | Current stacksize for task 127: unlimited
[...]
  |    40       41.528449        0.471551        8.151792       18.648301       14.616565        0.097139        0.014652
  |    41       16.235777       -0.235777        5.850502       10.092809        0.232945        0.049441        0.010079
  |    42       16.235777       -0.235777        5.850502       10.092809        0.232945        0.049441        0.010079
  |    43       41.528448        0.471552        8.151792       18.648301       14.616564        0.097138        0.014652
  |    44       16.235776       -0.235776        5.850501       10.092809        0.232946        0.049441        0.010079
  |    45       16.235776       -0.235776        5.850501       10.092809        0.232946        0.049441        0.010079
  |    46       41.528449        0.471551        8.151794       18.648303       14.616563        0.097138        0.014652
  |    47       16.235776       -0.235776        5.850503       10.092811        0.232942        0.049440        0.010079
  |    48       16.235776       -0.235776        5.850503       10.092811        0.232942        0.049440        0.010079
  |    49       41.528448        0.471552        8.151793       18.648302       14.616563        0.097138        0.014652
  |    50       16.235776       -0.235776        5.850501       10.092807        0.232947        0.049442        0.010079
  |    51       16.235776       -0.235776        5.850501       10.092807        0.232947        0.049442        0.010079
  |    52       41.528441        0.471559        8.151792       18.648299       14.616557        0.097140        0.014652
  |    53       16.235778       -0.235778        5.850500       10.092811        0.232947        0.049442        0.010079
  |    54       16.235778       -0.235778        5.850500       10.092811        0.232947        0.049442        0.010079
  |    55       41.528442        0.471558        8.151792       18.648299       14.616561        0.097139        0.014652
  |    56       16.235778       -0.235778        5.850501       10.092812        0.232945        0.049441        0.010079
  |    57       16.235778       -0.235778        5.850501       10.092812        0.232945        0.049441        0.010079
  |    58       41.528446        0.471554        8.151792       18.648300       14.616562        0.097140        0.014652
  |    59       16.235777       -0.235777        5.850500       10.092810        0.232947        0.049441        0.010079
  |    60       16.235777       -0.235777        5.850500       10.092810        0.232947        0.049441        0.010079
  |    61       41.528446        0.471554        8.151794       18.648303       14.616560        0.097138        0.014652
  |    62       16.235777       -0.235777        5.850505       10.092814        0.232939        0.049439        0.010078
  |    63       16.235776       -0.235776        5.850505       10.092814        0.232939        0.049439        0.010078
  |    64       41.528450        0.471550        8.151792       18.648301       14.616566        0.097139        0.014652
  |    65       16.235776       -0.235776        5.850503       10.092809        0.232944        0.049441        0.010079
  |    66       16.235776       -0.235776        5.850503       10.092809        0.232944        0.049441        0.010079
  |    67       41.528445        0.471555        8.151792       18.648300       14.616560        0.097140        0.014652
  |    68       16.235777       -0.235777        5.850502       10.092813        0.232943        0.049440        0.010079
  |    69       16.235777       -0.235777        5.850502       10.092813        0.232943        0.049440        0.010079
  |    70       41.528445        0.471555        8.151793       18.648301       14.616560        0.097139        0.014652
  |    71       16.235776       -0.235776        5.850503       10.092812        0.232942        0.049440        0.010079
  |    72       16.235776       -0.235776        5.850503       10.092812        0.232942        0.049440        0.010079
  |    73       41.528446        0.471554        8.151793       18.648301       14.616561        0.097139        0.014652
  |    74       16.235775       -0.235775        5.850502       10.092807        0.232945        0.049441        0.010079
  |    75       16.235775       -0.235775        5.850502       10.092807        0.232945        0.049441        0.010079
  |
  | Total     1850.000000       -0.000000
 
  Summary of the per-atom spin analysis:
  |
  |  atom   spin      l=0         l=1         l=2         l=3         l=4
  |     1    0.000000    0.000000    0.000000    0.000000   -0.000000    0.000000
  |     2   -0.000000    0.000000   -0.000000   -0.000000   -0.000000   -0.000000
  |     3   -0.000000   -0.000000   -0.000000   -0.000000    0.000000    0.000000
  |     4    0.000000    0.000000    0.000000    0.000000   -0.000000    0.000000
  |     5   -0.000000   -0.000000   -0.000000   -0.000000   -0.000000   -0.000000
  |     6   -0.000000    0.000000   -0.000000   -0.000000    0.000000    0.000000
  |     7    0.000000    0.000000    0.000000    0.000000   -0.000000    0.000000
  |     8   -0.000000    0.000000   -0.000000    0.000000   -0.000000   -0.000000
  |     9   -0.000000   -0.000000    0.000000   -0.000000    0.000000    0.000000
  |    10    0.000000    0.000000    0.000000    0.000000   -0.000000    0.000000
  |    11   -0.000000   -0.000000   -0.000000   -0.000000   -0.000000   -0.000000
  |    12   -0.000000   -0.000000   -0.000000   -0.000000    0.000000    0.000000
  |    13    0.000000    0.000000    0.000000    0.000000   -0.000000    0.000000
  |    14   -0.000000    0.000000   -0.000000   -0.000000   -0.000000   -0.000000
  |    15   -0.000000   -0.000000   -0.000000   -0.000000    0.000000    0.000000
  |    16    0.000000    0.000000    0.000000    0.000000   -0.000000    0.000000
  |    17   -0.000000    0.000000   -0.000000    0.000000   -0.000000   -0.000000
  |    18   -0.000000   -0.000000   -0.000000   -0.000000    0.000000    0.000000
  |    19    0.000000    0.000000    0.000000    0.000000   -0.000000    0.000000
  |    20   -0.000000    0.000000   -0.000000   -0.000000   -0.000000   -0.000000
  |    21   -0.000000   -0.000000   -0.000000   -0.000000    0.000000    0.000000
  |    22    0.000000    0.000000    0.000000    0.000000   -0.000000    0.000000
  |    23   -0.000000    0.000000   -0.000000   -0.000000   -0.000000   -0.000000
  |    24   -0.000000   -0.000000   -0.000000   -0.000000    0.000000    0.000000
  |    25    0.000000    0.000000    0.000000    0.000000   -0.000000    0.000000
  |    26   -0.000000    0.000000   -0.000000   -0.000000   -0.000000   -0.000000
  |    27   -0.000000   -0.000000    0.000000   -0.000000    0.000000    0.000000
  |    28    0.000000    0.000000    0.000000    0.000000   -0.000000    0.000000
  |    29   -0.000000   -0.000000   -0.000000   -0.000000   -0.000000   -0.000000
  |    30   -0.000000   -0.000000   -0.000000    0.000000    0.000000    0.000000
  |    31    0.000000    0.000000    0.000000    0.000000   -0.000000    0.000000
  |    32   -0.000000   -0.000000   -0.000000   -0.000000   -0.000000   -0.000000
  |    33   -0.000000    0.000000   -0.000000    0.000000   -0.000000    0.000000
  |    34    0.000000    0.000000    0.000000    0.000000   -0.000000    0.000000
  |    35   -0.000000    0.000000   -0.000000    0.000000   -0.000000   -0.000000
  |    36   -0.000000   -0.000000   -0.000000   -0.000000    0.000000    0.000000
  |    37    0.000000    0.000000    0.000000    0.000000   -0.000000    0.000000
  |    38   -0.000000    0.000000   -0.000000   -0.000000   -0.000000   -0.000000
  |    39   -0.000000   -0.000000   -0.000000    0.000000    0.000000    0.000000
  |    40    0.000000    0.000000    0.000000    0.000000   -0.000000    0.000000
  |    41   -0.000000   -0.000000    0.000000   -0.000000    0.000000   -0.000000
  |    42   -0.000000    0.000000   -0.000000   -0.000000   -0.000000    0.000000
  |    43    0.000000    0.000000    0.000000    0.000000   -0.000000    0.000000
  |    44   -0.000000    0.000000   -0.000000    0.000000   -0.000000   -0.000000
  |    45   -0.000000   -0.000000   -0.000000   -0.000000    0.000000    0.000000
  |    46    0.000000    0.000000    0.000000    0.000000   -0.000000    0.000000
  |    47   -0.000000    0.000000   -0.000000    0.000000   -0.000000   -0.000000
  |    48   -0.000000   -0.000000   -0.000000   -0.000000    0.000000    0.000000
  |    49    0.000000    0.000000    0.000000    0.000000   -0.000000    0.000000
  |    50   -0.000000    0.000000   -0.000000   -0.000000   -0.000000   -0.000000
  |    51   -0.000000   -0.000000   -0.000000    0.000000    0.000000    0.000000
  |    52    0.000000    0.000000    0.000000    0.000000   -0.000000    0.000000
  |    53   -0.000000    0.000000   -0.000000    0.000000   -0.000000   -0.000000
  |    54   -0.000000   -0.000000   -0.000000   -0.000000    0.000000    0.000000
  |    55    0.000000    0.000000    0.000000    0.000000   -0.000000    0.000000
  |    56   -0.000000   -0.000000   -0.000000   -0.000000   -0.000000   -0.000000
  |    57   -0.000000   -0.000000   -0.000000    0.000000    0.000000    0.000000
  |    58    0.000000    0.000000    0.000000    0.000000   -0.000000    0.000000
  |    59   -0.000000    0.000000   -0.000000    0.000000   -0.000000   -0.000000
  |    60   -0.000000   -0.000000   -0.000000   -0.000000    0.000000    0.000000
  |    61    0.000000    0.000000    0.000000    0.000000   -0.000000    0.000000
  |    62   -0.000000   -0.000000   -0.000000   -0.000000   -0.000000   -0.000000
  |    63   -0.000000    0.000000   -0.000000   -0.000000   -0.000000    0.000000
  |    64    0.000000    0.000000    0.000000    0.000000   -0.000000    0.000000
  |    65   -0.000000    0.000000   -0.000000   -0.000000   -0.000000   -0.000000
  |    66   -0.000000   -0.000000   -0.000000    0.000000    0.000000    0.000000
  |    67    0.000000    0.000000    0.000000    0.000000   -0.000000    0.000000
  |    68   -0.000000    0.000000   -0.000000   -0.000000   -0.000000   -0.000000
  |    69   -0.000000   -0.000000   -0.000000   -0.000000    0.000000    0.000000
  |    70    0.000000    0.000000    0.000000    0.000000   -0.000000    0.000000
  |    71   -0.000000    0.000000   -0.000000   -0.000000   -0.000000   -0.000000
  |    72   -0.000000   -0.000000   -0.000000   -0.000000    0.000000    0.000000
  |    73    0.000000    0.000000    0.000000    0.000000   -0.000000    0.000000
  |    74   -0.000000    0.000000   -0.000000   -0.000000   -0.000000   -0.000000
  |    75   -0.000000   -0.000000   -0.000000    0.000000    0.000000    0.000000
  |
  | Total    0.000000
 
  Calculating angular momentum projected density of states ...
  | Chemical potential is  -5.181327 eV.
  | writing  spin_up projected DOS (shifted by the chemical potential) for species S to file S_l_proj_dos_tetrahedron_spin_up.dat.
  | writing  spin_up projected DOS (raw data) for species S to file S_l_proj_dos_tetrahedron_spin_up_raw.dat.
  | writing  spin_dn projected DOS (shifted by the chemical potential) for species S to file S_l_proj_dos_tetrahedron_spin_dn.dat.
  | writing  spin_dn projected DOS (raw data) for species S to file S_l_proj_dos_tetrahedron_spin_dn_raw.dat.
  | writing  spin_up projected DOS (shifted by the chemical potential) for species Mo to file Mo_l_proj_dos_tetrahedron_spin_up.dat.
  | writing  spin_up projected DOS (raw data) for species Mo to file Mo_l_proj_dos_tetrahedron_spin_up_raw.dat.
  | writing  spin_dn projected DOS (shifted by the chemical potential) for species Mo to file Mo_l_proj_dos_tetrahedron_spin_dn.dat.
  | writing  spin_dn projected DOS (raw data) for species Mo to file Mo_l_proj_dos_tetrahedron_spin_dn_raw.dat.
  | writing  spin_up projected DOS (shifted by the chemical potential) for species W to file W_l_proj_dos_tetrahedron_spin_up.dat.
  | writing  spin_up projected DOS (raw data) for species W to file W_l_proj_dos_tetrahedron_spin_up_raw.dat.
  | writing  spin_dn projected DOS (shifted by the chemical potential) for species W to file W_l_proj_dos_tetrahedron_spin_dn.dat.
  | writing  spin_dn projected DOS (raw data) for species W to file W_l_proj_dos_tetrahedron_spin_dn_raw.dat.
  | writing  spin_up projected DOS (shifted by the chemical potential) for species Se to file Se_l_proj_dos_tetrahedron_spin_up.dat.
  | writing  spin_up projected DOS (raw data) for species Se to file Se_l_proj_dos_tetrahedron_spin_up_raw.dat.
  | writing  spin_dn projected DOS (shifted by the chemical potential) for species Se to file Se_l_proj_dos_tetrahedron_spin_dn.dat.
  | writing  spin_dn projected DOS (raw data) for species Se to file Se_l_proj_dos_tetrahedron_spin_dn_raw.dat.

  Mulliken analysis                                       :  max(cpu_time)    wall_clock(cpu1)
  | Time for Mulliken analysis                            :          0.435               0.465
  | Total time for Mulliken analysis                      :          0.435               0.465
------------------------------------------------------------

------------------------------------------------------------------------------
  Final output of selected total energy values:

  The following output summarizes some interesting total energy values
  at the end of a run (AFTER all relaxation, molecular dynamics, etc.).

  | Total energy of the DFT / Hartree-Fock s.c.f. calculation      :       -3324933.095077390 eV
  | Final zero-broadening corrected energy (caution - metals only) :       -3324933.095077390 eV
  | For reference only, the value of 1 Hartree used in FHI-aims is :             27.211384500 eV
  | For reference only, the overall average (free atom contribution
  | + realspace contribution) of the electrostatic potential after
  | s.c.f. convergence is                                          :             -1.134527503 eV

  Before relying on these values, please be sure to understand exactly which
  total energy value is referred to by a given number. Different objects may
  all carry the same name 'total energy'. Definitions:

  Total energy of the DFT / Hartree-Fock s.c.f. calculation:
  | Note that this energy does not include ANY quantities calculated after the
  | s.c.f. cycle, in particular not ANY RPA, MP2, etc. many-body perturbation terms.

  Final zero-broadening corrected energy:
  | For metallic systems only, a broadening of the occupation numbers at the Fermi
  | level can be extrapolated back to zero broadening by an electron-gas inspired
  | formula. For all systems that are not real metals, this value can be
  | meaningless and should be avoided.

------------------------------------------------------------------------------
  Methods described in the following list of references were used in this FHI-aims run.
  If you publish the results, please make sure to cite these reference if they apply.
  FHI-aims is an academic code, and for our developers (often, Ph.D. students
  and postdocs), scientific credit in the community is essential.
  Thank you for helping us!

  For any use of FHI-aims, please cite:

    Volker Blum, Ralf Gehrke, Felix Hanke, Paula Havu, Ville Havu,
    Xinguo Ren, Karsten Reuter, and Matthias Scheffler
    'Ab initio molecular simulations with numeric atom-centered orbitals'
    Computer Physics Communications 180, 2175-2196 (2009)
    http://doi.org/10.1016/j.cpc.2009.06.022


  The provided symmetry information was generated with SPGlib:

    Atsushi Togo, Yusuke Seto, Dimitar Pashov
    SPGlib 1.7.3 obtained from http://spglib.sourceforge.net
    Copyright (C) 2008 Atsushi Togo


  The ELSI infrastructure was used in your run to solve the Kohn-Sham electronic structure.
  Please check out http://elsi-interchange.org to learn more.
  If scalability is important for your project, please acknowledge ELSI by citing:

    V. W-z. Yu, F. Corsetti, A. Garcia, W. P. Huhn, M. Jacquelin, W. Jia,
    B. Lange, L. Lin, J. Lu, W. Mi, A. Seifitokaldani, A. Vazquez-Mayagoitia,
    C. Yang, H. Yang, and V. Blum
    'ELSI: A unified software interface for Kohn-Sham electronic structure solvers'
    Computer Physics Communications 222, 267-285 (2018).
    http://doi.org/10.1016/j.cpc.2017.09.007


  For the real-space grid partitioning and parallelization used in this calculation, please cite:

    Ville Havu, Volker Blum, Paula Havu, and Matthias Scheffler,
    'Efficient O(N) integration for all-electron electronic structure calculation'
    'using numerically tabulated basis functions'
    Journal of Computational Physics 228, 8367-8379 (2009).
    http://doi.org/10.1016/j.jcp.2009.08.008

  Of course, there are many other important community references, e.g., those cited in the
  above references. Our list is limited to references that describe implementations in the
  FHI-aims code. The reason is purely practical (length of this list) - please credit others as well.

   One or more s.c.f. cycles took more than 50 s.c.f. iterations.
   It might be worth adjusting your convergence settings. For example,
   metals need a larger broadening and a smaller "charge_mix_param" value than semiconductors.

------------------------------------------------------------
          Leaving FHI-aims.
          Date     :  20220930, Time     :  125734.258

          Computational steps:
          | Number of self-consistency cycles          :          145
          | Number of SCF (re)initializations          :            1

          Detailed time accounting                     :  max(cpu_time)    wall_clock(cpu1)
          | Total time                                  :     2014.745 s        2015.196 s
          | Preparation time                            :        1.324 s           1.325 s
          | Boundary condition initalization            :        0.923 s           0.923 s
          | Grid partitioning                           :        2.795 s           2.796 s
          | Preloading free-atom quantities on grid     :        1.382 s           1.388 s
          | Free-atom superposition energy              :        0.043 s           0.043 s
          | Total time for integrations                 :      331.524 s         331.526 s
          | Total time for solution of K.-S. equations  :      667.277 s         667.276 s
          | Total time for density update               :      751.020 s         751.025 s
          | Total time for mixing & preconditioning     :      106.676 s         106.638 s
          | Total time for Hartree multipole update     :        1.722 s           1.723 s
          | Total time for Hartree multipole sum        :      140.587 s         140.595 s
          | Total time for total energy evaluation      :        0.146 s           0.238 s
          | Total time for scaled ZORA corrections      :        0.000 s           0.000 s
          | Total time for vdW correction               :        8.119 s           8.121 s
          | Total time for Mulliken analysis            :        0.435 s           0.465 s

          Partial memory accounting:
          | Residual value for overall tracked memory usage across tasks:     0.000000 MB (should be 0.000000 MB)
          | Peak values for overall tracked memory usage:
          |   Minimum:      268.313 MB (on task  25 after allocating temp_ham_ovlp)
          |   Maximum:      273.379 MB (on task 116 after allocating temp_ham_ovlp)
          |   Average:      271.763 MB
          | Largest tracked array allocation:
          |   Minimum:       94.547 MB (hamiltonian on task   0)
          |   Maximum:       94.547 MB (hamiltonian on task   0)
          |   Average:       94.547 MB
          Note:  These values currently only include a subset of arrays which are explicitly tracked.
          The "true" memory usage will be greater.

          Have a nice day.
------------------------------------------------------------
