------------------------------------------------------------
          Invoking FHI-aims ...

          When using FHI-aims, please cite the following reference:

            Volker Blum, Ralf Gehrke, Felix Hanke, Paula Havu,
            Ville Havu, Xinguo Ren, Karsten Reuter, and Matthias Scheffler,
            'Ab Initio Molecular Simulations with Numeric Atom-Centered Orbitals',
            Computer Physics Communications 180, 2175-2196 (2009)

          In addition, many other developments in FHI-aims are likely important for
          your particular application. A partial list of references is given at the end of
          this file. Thank you for giving credit to the authors of these developments.

          For any questions about FHI-aims, please visit our slack channel at

            https://fhi-aims.slack.com

          and our main development and support site at

            https://aims-git.rz-berlin.mpg.de .

          The latter site, in particular, has a wiki to collect information, as well
          as an issue tracker to log discussions, suggest improvements, and report issues
          or bugs. https://aims-git.rz-berlin.mpg.de is also the main development site
          of the project and all new and updated code versions can be obtained there.
          Please send an email to aims-coordinators@fhi-berlin.mpg.de and we will add
          you to these sites. They are for you and everyone is welcome there.

------------------------------------------------------------



  Date     :  20220921, Time     :  063428.293
  Time zero on CPU 1             :   0.419242000000000E+00  s.
  Internal wall clock time zero  :           432974068.293  s.

  FHI-aims created a unique identifier for this run for later identification
  aims_uuid : 00E3E1C5-E796-483B-AADB-71EA358584E1

  Build configuration of the current instance of FHI-aims
  -------------------------------------------------------
  FHI-aims version      : 220117
  Commit number         : 0c0e6afe2
  CMake host system     : Linux-5.3.18-24.99-default
  CMake version         : 3.22.0
  Fortran compiler      : /mpcdf/soft/SLE_15/packages/x86_64/intel_oneapi/2021.4/mpi/2021.4.0/bin/mpiifort (Intel) version 2021.4.0.20210910
  Fortran compiler flags: -O3 -ip -fp-model precise
  C compiler            : /mpcdf/soft/SLE_15/packages/x86_64/intel/2021.4.0/bin/icc (Intel) version 2021.4.0.20210910
  C compiler flags      : -O3 -ip -fp-model precise
  C++ compiler          : /mpcdf/soft/SLE_15/packages/x86_64/intel/2021.4.0/bin/icpc (Intel) version 2021.4.0.20210910
  C++ compiler flags    : -O3 -ip -fp-model precise
  Using MPI
  Using ScaLAPACK
  Using LibXC
  Using i-PI
  Using RLSY
  Linking against: /mpcdf/soft/SLE_15/packages/x86_64/intel_oneapi/2021.4/mkl/latest/lib/intel64/libmkl_intel_lp64.so
                   /mpcdf/soft/SLE_15/packages/x86_64/intel_oneapi/2021.4/mkl/latest/lib/intel64/libmkl_sequential.so
                   /mpcdf/soft/SLE_15/packages/x86_64/intel_oneapi/2021.4/mkl/latest/lib/intel64/libmkl_core.so
                   /mpcdf/soft/SLE_15/packages/x86_64/intel_oneapi/2021.4/mkl/latest/lib/intel64/libmkl_blacs_intelmpi_lp64.so
                   /mpcdf/soft/SLE_15/packages/x86_64/intel_oneapi/2021.4/mkl/latest/lib/intel64/libmkl_scalapack_lp64.so

  Using      288 parallel tasks.
  Task        0 on host ravg1100 reporting.
  Task        1 on host ravg1100 reporting.
  Task        2 on host ravg1100 reporting.
  Task        3 on host ravg1100 reporting.
  Task        4 on host ravg1100 reporting.
  Task        5 on host ravg1100 reporting.
  Task        6 on host ravg1100 reporting.
  Task        7 on host ravg1100 reporting.
  Task        8 on host ravg1100 reporting.
  Task        9 on host ravg1100 reporting.
  Task       10 on host ravg1100 reporting.
  Task       11 on host ravg1100 reporting.
  Task       12 on host ravg1100 reporting.
  Task       13 on host ravg1100 reporting.
  Task       14 on host ravg1100 reporting.
  Task       15 on host ravg1100 reporting.
  Task       16 on host ravg1100 reporting.
  Task       17 on host ravg1100 reporting.
  Task       18 on host ravg1100 reporting.
  Task       19 on host ravg1100 reporting.
  Task       20 on host ravg1100 reporting.
  Task       21 on host ravg1100 reporting.
  Task       22 on host ravg1100 reporting.
  Task       23 on host ravg1100 reporting.
  Task       24 on host ravg1100 reporting.
  Task       25 on host ravg1100 reporting.
  Task       26 on host ravg1100 reporting.
  Task       27 on host ravg1100 reporting.
  Task       28 on host ravg1100 reporting.
  Task       29 on host ravg1100 reporting.
  Task       30 on host ravg1100 reporting.
  Task       31 on host ravg1100 reporting.
  Task       32 on host ravg1100 reporting.
  Task       33 on host ravg1100 reporting.
  Task       34 on host ravg1100 reporting.
  Task       35 on host ravg1100 reporting.
  Task       36 on host ravg1100 reporting.
  Task       37 on host ravg1100 reporting.
  Task       38 on host ravg1100 reporting.
  Task       39 on host ravg1100 reporting.
  Task       40 on host ravg1100 reporting.
  Task       41 on host ravg1100 reporting.
  Task       42 on host ravg1100 reporting.
  Task       43 on host ravg1100 reporting.
  Task       44 on host ravg1100 reporting.
  Task       45 on host ravg1100 reporting.
  Task       46 on host ravg1100 reporting.
  Task       47 on host ravg1100 reporting.
  Task       48 on host ravg1100 reporting.
  Task       49 on host ravg1100 reporting.
  Task       50 on host ravg1100 reporting.
  Task       51 on host ravg1100 reporting.
  Task       52 on host ravg1100 reporting.
  Task       53 on host ravg1100 reporting.
  Task       54 on host ravg1100 reporting.
  Task       55 on host ravg1100 reporting.
  Task       56 on host ravg1100 reporting.
  Task       57 on host ravg1100 reporting.
  Task       58 on host ravg1100 reporting.
  Task       59 on host ravg1100 reporting.
  Task       60 on host ravg1100 reporting.
  Task       61 on host ravg1100 reporting.
  Task       62 on host ravg1100 reporting.
  Task       63 on host ravg1100 reporting.
  Task       64 on host ravg1100 reporting.
  Task       65 on host ravg1100 reporting.
  Task       66 on host ravg1100 reporting.
  Task       67 on host ravg1100 reporting.
  Task       68 on host ravg1100 reporting.
  Task       69 on host ravg1100 reporting.
  Task       70 on host ravg1100 reporting.
  Task       71 on host ravg1100 reporting.
  Task       72 on host ravg1103 reporting.
  Task       73 on host ravg1103 reporting.
  Task       74 on host ravg1103 reporting.
  Task       75 on host ravg1103 reporting.
  Task       76 on host ravg1103 reporting.
  Task       77 on host ravg1103 reporting.
  Task       78 on host ravg1103 reporting.
  Task       79 on host ravg1103 reporting.
  Task       80 on host ravg1103 reporting.
  Task       81 on host ravg1103 reporting.
  Task       82 on host ravg1103 reporting.
  Task       83 on host ravg1103 reporting.
  Task       84 on host ravg1103 reporting.
  Task       85 on host ravg1103 reporting.
  Task       86 on host ravg1103 reporting.
  Task       87 on host ravg1103 reporting.
  Task       88 on host ravg1103 reporting.
  Task       89 on host ravg1103 reporting.
  Task       90 on host ravg1103 reporting.
  Task       91 on host ravg1103 reporting.
  Task       92 on host ravg1103 reporting.
  Task       93 on host ravg1103 reporting.
  Task       94 on host ravg1103 reporting.
  Task       95 on host ravg1103 reporting.
  Task       96 on host ravg1103 reporting.
  Task       97 on host ravg1103 reporting.
  Task       98 on host ravg1103 reporting.
  Task       99 on host ravg1103 reporting.
  Task      100 on host ravg1103 reporting.
  Task      101 on host ravg1103 reporting.
  Task      102 on host ravg1103 reporting.
  Task      103 on host ravg1103 reporting.
  Task      104 on host ravg1103 reporting.
  Task      105 on host ravg1103 reporting.
  Task      106 on host ravg1103 reporting.
  Task      107 on host ravg1103 reporting.
  Task      108 on host ravg1103 reporting.
  Task      109 on host ravg1103 reporting.
  Task      110 on host ravg1103 reporting.
  Task      111 on host ravg1103 reporting.
  Task      112 on host ravg1103 reporting.
  Task      113 on host ravg1103 reporting.
  Task      114 on host ravg1103 reporting.
  Task      115 on host ravg1103 reporting.
  Task      116 on host ravg1103 reporting.
  Task      117 on host ravg1103 reporting.
  Task      118 on host ravg1103 reporting.
  Task      119 on host ravg1103 reporting.
  Task      120 on host ravg1103 reporting.
  Task      121 on host ravg1103 reporting.
  Task      122 on host ravg1103 reporting.
  Task      123 on host ravg1103 reporting.
  Task      124 on host ravg1103 reporting.
  Task      125 on host ravg1103 reporting.
  Task      126 on host ravg1103 reporting.
  Task      127 on host ravg1103 reporting.
  Task      128 on host ravg1103 reporting.
  Task      129 on host ravg1103 reporting.
  Task      130 on host ravg1103 reporting.
  Task      131 on host ravg1103 reporting.
  Task      132 on host ravg1103 reporting.
  Task      133 on host ravg1103 reporting.
  Task      134 on host ravg1103 reporting.
  Task      135 on host ravg1103 reporting.
  Task      136 on host ravg1103 reporting.
  Task      137 on host ravg1103 reporting.
  Task      138 on host ravg1103 reporting.
  Task      139 on host ravg1103 reporting.
  Task      140 on host ravg1103 reporting.
  Task      141 on host ravg1103 reporting.
  Task      142 on host ravg1103 reporting.
  Task      143 on host ravg1103 reporting.
  Task      144 on host ravg1104 reporting.
  Task      145 on host ravg1104 reporting.
  Task      146 on host ravg1104 reporting.
  Task      147 on host ravg1104 reporting.
  Task      148 on host ravg1104 reporting.
  Task      149 on host ravg1104 reporting.
  Task      150 on host ravg1104 reporting.
  Task      151 on host ravg1104 reporting.
  Task      152 on host ravg1104 reporting.
  Task      153 on host ravg1104 reporting.
  Task      154 on host ravg1104 reporting.
  Task      155 on host ravg1104 reporting.
  Task      156 on host ravg1104 reporting.
  Task      157 on host ravg1104 reporting.
  Task      158 on host ravg1104 reporting.
  Task      159 on host ravg1104 reporting.
  Task      160 on host ravg1104 reporting.
  Task      161 on host ravg1104 reporting.
  Task      162 on host ravg1104 reporting.
  Task      163 on host ravg1104 reporting.
  Task      164 on host ravg1104 reporting.
  Task      165 on host ravg1104 reporting.
  Task      166 on host ravg1104 reporting.
  Task      167 on host ravg1104 reporting.
  Task      168 on host ravg1104 reporting.
  Task      169 on host ravg1104 reporting.
  Task      170 on host ravg1104 reporting.
  Task      171 on host ravg1104 reporting.
  Task      172 on host ravg1104 reporting.
  Task      173 on host ravg1104 reporting.
  Task      174 on host ravg1104 reporting.
  Task      175 on host ravg1104 reporting.
  Task      176 on host ravg1104 reporting.
  Task      177 on host ravg1104 reporting.
  Task      178 on host ravg1104 reporting.
  Task      179 on host ravg1104 reporting.
  Task      180 on host ravg1104 reporting.
  Task      181 on host ravg1104 reporting.
  Task      182 on host ravg1104 reporting.
  Task      183 on host ravg1104 reporting.
  Task      184 on host ravg1104 reporting.
  Task      185 on host ravg1104 reporting.
  Task      186 on host ravg1104 reporting.
  Task      187 on host ravg1104 reporting.
  Task      188 on host ravg1104 reporting.
  Task      189 on host ravg1104 reporting.
  Task      190 on host ravg1104 reporting.
  Task      191 on host ravg1104 reporting.
  Task      192 on host ravg1104 reporting.
  Task      193 on host ravg1104 reporting.
  Task      194 on host ravg1104 reporting.
  Task      195 on host ravg1104 reporting.
  Task      196 on host ravg1104 reporting.
  Task      197 on host ravg1104 reporting.
  Task      198 on host ravg1104 reporting.
  Task      199 on host ravg1104 reporting.
  Task      200 on host ravg1104 reporting.
  Task      201 on host ravg1104 reporting.
  Task      202 on host ravg1104 reporting.
  Task      203 on host ravg1104 reporting.
  Task      204 on host ravg1104 reporting.
  Task      205 on host ravg1104 reporting.
  Task      206 on host ravg1104 reporting.
  Task      207 on host ravg1104 reporting.
  Task      208 on host ravg1104 reporting.
  Task      209 on host ravg1104 reporting.
  Task      210 on host ravg1104 reporting.
  Task      211 on host ravg1104 reporting.
  Task      212 on host ravg1104 reporting.
  Task      213 on host ravg1104 reporting.
  Task      214 on host ravg1104 reporting.
  Task      215 on host ravg1104 reporting.
  Task      216 on host ravg1105 reporting.
  Task      217 on host ravg1105 reporting.
  Task      218 on host ravg1105 reporting.
  Task      219 on host ravg1105 reporting.
  Task      220 on host ravg1105 reporting.
  Task      221 on host ravg1105 reporting.
  Task      222 on host ravg1105 reporting.
  Task      223 on host ravg1105 reporting.
  Task      224 on host ravg1105 reporting.
  Task      225 on host ravg1105 reporting.
  Task      226 on host ravg1105 reporting.
  Task      227 on host ravg1105 reporting.
  Task      228 on host ravg1105 reporting.
  Task      229 on host ravg1105 reporting.
  Task      230 on host ravg1105 reporting.
  Task      231 on host ravg1105 reporting.
  Task      232 on host ravg1105 reporting.
  Task      233 on host ravg1105 reporting.
  Task      234 on host ravg1105 reporting.
  Task      235 on host ravg1105 reporting.
  Task      236 on host ravg1105 reporting.
  Task      237 on host ravg1105 reporting.
  Task      238 on host ravg1105 reporting.
  Task      239 on host ravg1105 reporting.
  Task      240 on host ravg1105 reporting.
  Task      241 on host ravg1105 reporting.
  Task      242 on host ravg1105 reporting.
  Task      243 on host ravg1105 reporting.
  Task      244 on host ravg1105 reporting.
  Task      245 on host ravg1105 reporting.
  Task      246 on host ravg1105 reporting.
  Task      247 on host ravg1105 reporting.
  Task      248 on host ravg1105 reporting.
  Task      249 on host ravg1105 reporting.
  Task      250 on host ravg1105 reporting.
  Task      251 on host ravg1105 reporting.
  Task      252 on host ravg1105 reporting.
  Task      253 on host ravg1105 reporting.
  Task      254 on host ravg1105 reporting.
  Task      255 on host ravg1105 reporting.
  Task      256 on host ravg1105 reporting.
  Task      257 on host ravg1105 reporting.
  Task      258 on host ravg1105 reporting.
  Task      259 on host ravg1105 reporting.
  Task      260 on host ravg1105 reporting.
  Task      261 on host ravg1105 reporting.
  Task      262 on host ravg1105 reporting.
  Task      263 on host ravg1105 reporting.
  Task      264 on host ravg1105 reporting.
  Task      265 on host ravg1105 reporting.
  Task      266 on host ravg1105 reporting.
  Task      267 on host ravg1105 reporting.
  Task      268 on host ravg1105 reporting.
  Task      269 on host ravg1105 reporting.
  Task      270 on host ravg1105 reporting.
  Task      271 on host ravg1105 reporting.
  Task      272 on host ravg1105 reporting.
  Task      273 on host ravg1105 reporting.
  Task      274 on host ravg1105 reporting.
  Task      275 on host ravg1105 reporting.
  Task      276 on host ravg1105 reporting.
  Task      277 on host ravg1105 reporting.
  Task      278 on host ravg1105 reporting.
  Task      279 on host ravg1105 reporting.
  Task      280 on host ravg1105 reporting.
  Task      281 on host ravg1105 reporting.
  Task      282 on host ravg1105 reporting.
  Task      283 on host ravg1105 reporting.
  Task      284 on host ravg1105 reporting.
  Task      285 on host ravg1105 reporting.
  Task      286 on host ravg1105 reporting.
  Task      287 on host ravg1105 reporting.

  Performing system and environment tests:
  | Environment variable OMP_NUM_THREADS correctly set to 1.
  | Checking for ScaLAPACK...
  | Testing pdtran()...
  | All pdtran() tests passed.

  Obtaining array dimensions for all initial allocations:
  
  -----------------------------------------------------------------------
  Parsing control.in (first pass over file, find array dimensions only).
  The contents of control.in will be repeated verbatim below
  unless switched off by setting 'verbatim_writeout .false.' .
  in the first line of control.in .
  -----------------------------------------------------------------------
  
  xc                 hse06  0.11
  hse_unit b
  spin               collinear
  default_initial_moment 1
  charge      0.0
  relativistic       atomic_zora scalar
  #elsi_restart read
  # SCF settings
  #energy_tolerance 1e-7
  relax_geometry bfgs 1E-3
  #relax_unit_cell fixed_angles
  use_symmetric_forces .true.
  occupation_type gaussian       0.1
  # k-grid settings  (to be adjusted)
  k_grid  4 4 1
  #empty_states 8
  use_dipole_correction
  include_spin_orbit non_self_consistent
  # sc_accuracy_rho    1E-4
  #    sc_accuracy_eev    1E-3
  #    sc_accuracy_etot   1E-4
  #    sc_accuracy_forces 1E-2
  many_body_dispersion_nl    beta=0.83
  ################################################################################
  #
  #  FHI-aims code project
  #  Volker Blum, 2018
  #
  #  Suggested "intermediate" defaults for Se atom (to be pasted into control.in file)
  #
  #  2020/09/15 These "intermediate" settings are identical to past "tight" defaults
  #             and differ only in the "g" function that is now included in "tight".
  #
  ################################################################################
    species        Se
  #     global species definitions
      nucleus             34
      mass                78.96
  #
      l_hartree           6
  #
      cut_pot             4.0          2.0  1.0
      basis_dep_cutoff    1e-4
  #
      radial_base         55 7.0
      radial_multiplier   2
      angular_grids       specified
        division   0.0830  110
        division   0.1357  194
        division   0.7377  302
        division   0.8610  434
  #      division   0.9640  590
  #      division   1.0773  770
  #      division   2.5539  974
  #      outer_grid  974
        outer_grid  434
  ################################################################################
  #
  #  Definition of "minimal" basis
  #
  ################################################################################
  #     valence basis states
      valence      4  s   2.
      valence      4  p   4.
      valence      3  d  10.
  #     ion occupancy
      ion_occ      4  s   1.
      ion_occ      4  p   3.
      ion_occ      3  d  10.
  ################################################################################
  #
  #  Suggested additional basis functions. For production calculations,
  #  uncomment them one after another (the most important basis functions are
  #  listed first).
  #
  #  Constructed for dimers: 1.85 A, 2.15 A, 2.50 A, 3.00 A, 4.00 A
  #
  ################################################################################
  #  "First tier" - improvements: -336.21 meV to -36.85 meV
       hydro 3 d 4.3
       hydro 2 p 1.6
       hydro 4 f 7.2
       ionic 4 s auto
  #  "Second tier" - improvements: -14.39 meV to -1.49 meV
  #     hydro 5 g 10.4
  #     hydro 4 p 4.5
  #     hydro 4 d 6.2
  #     hydro 4 f 11.2
  #     hydro 1 s 0.65
  #     hydro 6 h 15.2
  #  "Third tier" - improvements: -0.46 meV and below
  #     hydro 5 g 14.4
  #     ionic 4 d auto
  #     hydro 4 f 22.4
  #     hydro 5 f 7.4
  #     hydro 5 p 8
  #     hydro 5 s 9.4
  #  "Fourth tier" - improvements: -0.12 meV and below
  #     hydro 5 d 11.6
  #     hydro 6 h 18
  #     hydro 4 p 4
  #     hydro 5 f 16
  #     hydro 4 s 3.9
  
  
  ################################################################################
  #
  #  FHI-aims code project
  #  Volker Blum, 2018
  #
  #  Suggested "intermediate" defaults for S atom (to be pasted into control.in file)
  #
  ################################################################################
    species        S
  #     global species definitions
      nucleus             16
      mass                32.065
  #
      l_hartree           6
  #
      cut_pot             4.0          2.0  1.0
      basis_dep_cutoff    1e-4
  #
      radial_base         44 7.0
      radial_multiplier   2
      angular_grids       specified
        division   0.4665  110
        division   0.5810  194
        division   0.7139  302
        division   0.8274  434
  #      division   0.9105  590
  #      division   1.0975  770
  #      division   1.2028  974
  #      outer_grid  974
        outer_grid  434
  ################################################################################
  #
  #  Definition of "minimal" basis
  #
  ################################################################################
  #     valence basis states
      valence      3  s   2.
      valence      3  p   4.
  #     ion occupancy
      ion_occ      3  s   1.
      ion_occ      3  p   3.
  ################################################################################
  #
  #  Suggested additional basis functions. For production calculations,
  #  uncomment them one after another (the most important basis functions are
  #  listed first).
  #
  #  Constructed for dimers: 1.6 A, 1.9 A, 2.5 A, 3.25 A, 4.0 A
  #
  ################################################################################
  #  "First tier" - improvements: -652.81 meV to -45.53 meV
       ionic 3 d auto
       hydro 2 p 1.8
       hydro 4 f 7
       ionic 3 s auto
  #  "Second tier" - improvements: -30.20 meV to -1.74 meV
  #     hydro 4 d 6.2
  for_aux     hydro 5 g 10.8
  #     hydro 4 p 4.9
  #     hydro 5 f 10
  #     hydro 1 s 0.8
  #  "Third tier" - improvements: -1.04 meV to -0.20 meV
  #     hydro 3 d 3.9
  #     hydro 3 d 2.7
  #     hydro 5 g 12
  #     hydro 4 p 10.4
  #     hydro 5 f 12.4
  #     hydro 2 s 1.9
  #  "Fourth tier" - improvements: -0.35 meV to -0.06 meV
  #     hydro 4 d 10.4
  #     hydro 4 p 7.2
  #     hydro 4 d 10
  #     hydro 5 g 19.2
  #     hydro 4 s 12
  
  ################################################################################
  #
  #  FHI-aims code project
  # Volker Blum, Fritz Haber Institute Berlin, 2009
  #
  #  Suggested "intermediate" defaults for Mo atom (to be pasted into control.in file)
  #
  #  See https://aaltodoc.aalto.fi/handle/123456789/33620 for the report these
  #  setting are based on
  ################################################################################
    species        Mo
  #     global species definitions
      nucleus             42
      mass                95.94
  #
      l_hartree           6
  #
      cut_pot             4.0  2.0  1.0
      basis_dep_cutoff    1e-4
  #
      radial_base         59 7.0
      radial_multiplier   2
      angular_grids specified
        division   0.3117   50
        division   0.6750  110
        division   1.0351  194
        division   1.2073  302
        division   1.6402  434
  #      division   1.9185  590
  #      division   2.0237  770
  #      division   2.0980  974
  #      division   2.7972 1202
  #      outer_grid  974
        outer_grid  434
  ################################################################################
  #
  #  Definition of "minimal" basis
  #
  ################################################################################
  #     valence basis states
      valence      5  s   1.
      valence      4  p   6.
      valence      4  d   5.
  #     ion occupancy
      ion_occ     5  s   0.
      ion_occ     4  p   6.
      ion_occ     4  d   4.
  ################################################################################
  #
  #  Suggested additional basis functions. For production calculations,
  #  uncomment them one after another (the most important basis functions are
  #  listed first).
  #
  #  Constructed for dimers: 1.675 A, 1.9 A, 2.375 A, 3.00 A, 4.00 A
  #
  ################################################################################
  #  "First tier"  - max. impr. -711.23  meV, min. impr. -21.07 meV
       hydro 4 f 8.4
       hydro 3 d 2.8
       ionic 5 p auto
       for_aux hydro 5 g 12
       ionic 5 s auto
  #  "Second tier" - max. impr. -39.38  meV, min. impr. -2.68 meV
  #     hydro 4 f 12.4
  #     hydro 3 d 3.3
  #     hydro 6 h 17.2
  #     hydro 4 f 7.6
  #     hydro 3 p 3.0
  #     hydro 1 s 0.65
  #  "Third tier"  - max. impr. -5.50 meV, min. impr. -0.47 meV
  #     hydro 4 f 29.2
  #     hydro 5 g 11.2
  #     hydro 3 d 6.8
  #     hydro 6 h 14.8
  #     hydro 2 p 2.3
  #     hydro 4 s 3.8
  #  "Fourth tier"  - max. impr. -0.58 meV, min. impr. -0.19 meV
  #     hydro 5 f 6.8
  #     hydro 5 d 14.8
  #     hydro 6 s 7.8
  #     hydro 5 g 20.8
  #     hydro 5 d 10.4
  #     hydro 5 p 9.8
  #  Further functions - -0.17 meV and below
  #     hydro 5 d 3.2
  ################################################################################
  #
  #  FHI-aims code project
  #  Volker Blum, Maria Dragoumi, Sebastian Kokott 2020
  #
  #  Suggested "intermediate" defaults for W atom (to be pasted into control.in file)
  #
  ################################################################################
    species          W
  #     global species definitions
      nucleus        74
      mass           183.84
  #
      l_hartree      6
  #
      cut_pot        4.0  2.0  1.0
      basis_dep_cutoff    1e-4
  #
      radial_base    71  7.0
      radial_multiplier  2
      angular_grids specified
        division   0.2901   50
        division   0.6986  110
        division   1.0528  194
        division   1.2659  302
        division   1.5223  434
  #      division   1.8111  590
  #      division   2.0105  770
  #      division   2.0413  974
  #      division   2.8804 1202
  #      outer_grid  974
        outer_grid  434
  ################################################################################
  #
  #  Definition of "minimal" basis
  #
  ################################################################################
  #     valence basis states
      valence      6  s   2.
      valence      5  p   6.
      valence      5  d   4.
      valence      4  f  14.
  #     ion occupancy
      ion_occ      6  s   1.
      ion_occ      5  p   6.
      ion_occ      5  d   3.
      ion_occ      4  f  14.
  ################################################################################
  #
  #  Suggested additional basis functions. For production calculations,
  #  uncomment them one after another (the most important basis functions are
  #  listed first).
  #
  #  Constructed for dimers: 1.775, 1.99, 2.50, 3.25, 4.50 AA
  #
  ################################################################################
  #
  #  "First tier" - improvements: -603.77 meV to -28.99 meV
       hydro 4 f 7.8
       hydro 4 d 5.8
       ionic 6 p auto
    for_aux   hydro 5 g 12.4
       ionic 6 s auto
  #  "Second tier" - improvements: -28.30 meV to -1.31 meV
  #     hydro 6 h 16.8
  #     ionic 5 d auto
  #     hydro 4 f 8.6
  #     hydro 5 g 16.8
  #     hydro 5 d 8.4
  #     hydro 3 p 3.3
  #     hydro 1 s 0.55
  #  "Third tier" - max. impr. -1.79 meV, min. impr. -0.26 meV
  #     hydro 5 f 10.8
  #     hydro 5 g 34.4
  #     hydro 6 h 20.8
  #     hydro 5 g 12.8
  #     hydro 2 p 1.6
  #     hydro 4 s 4.7
  #     hydro 6 d 18.4
  #  "Fourth tier" -0.46 max. impr. - meV, min. impr. -0.09 meV
  #     hydro 6 h 21.6
  #     hydro 5 f 22.4
  #     hydro 4 f 4
  #     hydro 5 p 9.6
  #     hydro 6 d 17.2
  #     hydro 3 p 5.2
  #     hydro 5 g 4.7
  #     hydro 6 s 7.6
  
  -----------------------------------------------------------------------
  Completed first pass over input file control.in .
  -----------------------------------------------------------------------
  
  
  -----------------------------------------------------------------------
  Parsing geometry.in (first pass over file, find array dimensions only).
  The contents of geometry.in will be repeated verbatim below
  unless switched off by setting 'verbatim_writeout .false.' .
  in the first line of geometry.in .
  -----------------------------------------------------------------------
  
  #
  # This is the geometry file that corresponds to the current relaxation step.
  # If you do not want this file to be written, set the "write_restart_geometry" flag to .false.
  #  aims_uuid : 9E501681-C1EC-454B-AC34-FA822401A5BB
  #
    set_vacuum_level         0.700814
  lattice_vector     15.72847685      0.00000000      0.00000000
  lattice_vector     -7.86461685     13.62035640      0.00000000
  lattice_vector      0.00000000      0.00000000    103.13570646
  atom      -0.00045994      0.90761678     51.56718749 W
  atom       1.57208785      1.81590162     53.13520178 S
  atom       1.57275788      1.81165610     49.99877754 S
  atom      -1.57297931      3.63141470     51.56557707 W
  atom       0.00126772      4.54021703     53.13130411 S
  atom      -0.00002142      4.53946165     49.99801059 S
  atom      -3.14585553      6.35499532     51.56716173 W
  atom      -1.57290972      7.26257977     53.13517775 S
  atom      -1.57623854      7.26531401     49.99876527 S
  atom      -4.71764830      9.07934808     51.56879905 W
  atom      -3.14594222      9.98713681     53.13827042 S
  atom      -3.14594444      9.98882552     50.00155337 S
  atom      -6.29133310     11.80470841     51.56878867 W
  atom      -4.71924033     12.71184195     53.13824611 S
  atom      -4.71778562     12.71098102     50.00154914 S
  atom       3.14489875      0.90647464     51.56877198 W
  atom       4.71851127      1.81979185     53.13361038 S
  atom       4.71850066      1.81244842     50.00088266 S
  atom       1.57560591      3.62870781     51.56369975 W
  atom       3.14438891      4.54251417     53.13120594 S
  atom       3.14346302      4.52552359     49.98479646 S
  atom      -0.00109403      6.35932771     51.56367722 W
  atom       1.57473960      7.26087054     53.13120750 S
  atom       1.55957021      7.26862516     49.98479058 S
  atom      -1.57422345      9.07935556     51.56879777 W
  atom       0.00360432      9.98533385     53.13366225 S
  atom      -0.00272784      9.98899770     50.00093957 S
  atom      -3.14599799     11.80363566     51.57062045 W
  atom      -1.57280949     12.71185307     53.13824131 S
  atom      -1.57426096     12.71097844     50.00153645 S
  atom       6.29213914      0.90646964     51.56875299 W
  atom       7.86494226      1.81590133     53.13513739 S
  atom       7.86426069      1.81165142     49.99874729 S
  atom       4.71845032      3.63469310     51.56227719 W
  atom       6.29248525      4.54250740     53.13118641 S
  atom       6.29339041      4.52553953     49.98476972 S
  atom       3.11940080      6.34042182     51.54941219 W
  atom       4.71834354      7.26340131     53.07030007 S
  atom       4.71833443      7.26314693     55.00777718 S
  atom       4.71834884      7.26347410     50.01059832 S
  atom       1.57546119      9.07792132     51.56232897 W
  atom       3.14873813      9.98701010     53.13125302 S
  atom       3.13447873      9.99629973     49.98482330 S
  atom      -0.00067874     11.80473895     51.56880067 W
  atom       1.57336644     12.71199430     53.13519966 S
  atom       1.56936420     12.71347425     49.99878694 S
  atom       9.43752868      0.90758945     51.56713818 W
  atom      11.01064556      1.81577561     53.13416378 S
  atom      11.00971205      1.81521429     49.99816299 S
  atom       7.86129700      3.62872168     51.56364705 W
  atom       9.43559910      4.54018052     53.13130053 S
  atom       9.43689526      4.53947149     49.99796837 S
  atom       6.31731088      6.34042407     51.54941652 W
  atom       7.86196573      7.26086511     53.13123186 S
  atom       7.87714142      7.26862124     49.98484468 S
  atom       4.71829568      9.10964877     51.54946488 W
  atom       6.28782054      9.98701391     53.13127056 S
  atom       6.30209577      9.99630898     49.98483991 S
  atom       3.14159499     11.80250173     51.56371845 W
  atom       4.71819993     12.71004697     53.13133694 S
  atom       4.71821114     12.71150083     49.99804505 S
  atom      12.58276351      0.90738352     51.56557659 W
  atom      14.15484202      1.81578316     53.13418452 S
  atom      14.15579967      1.81522550     49.99821174 S
  atom      11.00986576      3.63139982     51.56554818 W
  atom      12.58266059      4.53855878     53.13417329 S
  atom      12.58267629      4.53965524     49.99819566 S
  atom       9.43784761      6.35929457     51.56369109 W
  atom      11.00964376      7.26256825     53.13517709 S
  atom      11.01295458      7.26529573     49.99878167 S
  atom       7.86114974      9.07793727     51.56235046 W
  atom       9.43298004      9.98532236     53.13368728 S
  atom       9.43930101      9.98898202     50.00092681 S
  atom       6.29483418     11.80250882     51.56373195 W
  atom       7.86306506     12.71198311     53.13518961 S
  atom       7.86705639     12.71348901     49.99882219 S
  #
  # What follows is the current estimated Hessian matrix constructed by the BFGS algorithm.
  # This is NOT the true Hessian matrix of the system.
  # If you do not want this information here, switch it off using the "hessian_to_restart_geometry" keyword.
  #
  trust_radius             0.0000781086
  hessian_file
  
  -----------------------------------------------------------------------
  Completed first pass over input file geometry.in .
  -----------------------------------------------------------------------
  

  Basic array size parameters:
  | Number of species                 :        4
  | Number of atoms                   :       76
  | Number of lattice vectors         :        3
  | Max. basis fn. angular momentum   :        4
  | Max. atomic/ionic basis occupied n:        6
  | Max. number of basis fn. types    :        3
  | Max. radial fns per species/type  :       14
  | Max. logarithmic grid size        :     1483
  | Max. radial integration grid size :      143
  | Max. angular integration grid size:      434
  | Max. angular grid division number :        8
  | Radial grid for Hartree potential :     1483
  | Number of spin channels           :        2

------------------------------------------------------------
          Reading file control.in.
------------------------------------------------------------

  XC: Using HSE-functional with OMEGA =  0.110000E+00 <units>.
  XC: For the actual units (bohr^-1 or Angstrom^-1), see below.
  hse_unit: Unit for the HSE06 hybrid functional screening parameter set to bohr^(-1).
  Spin treatment: Spin density functional theory - collinear spins.
  Initial spin moment per atom:   1.0000
  Charge =   0.000000E+00: Neutral system requested explicitly.
  Scalar relativistic treatment of kinetic energy: on-site free-atom approximation to ZORA.
  Geometry relaxation: Modified BFGS - TRM (trust radius method) for lattice optimization.
  Convergence accuracy for geometry relaxation: Maximum force <   0.100000E-02 eV/A.
  Occupation type: Gaussian broadening, width =   0.100000E+00 eV.
  Found k-point grid:         4         4         1
  Using dipole correction.
  Calculating non-self-consistent second-variational spin-orbit coupling after scf-cycle
  You have request a SOC run with spin-polarization.
  symmetry_reduced_k_grid will be turned off.
  Using libMBD for calculating MBD and TS energies
 
  Reading configuration options for species Se                  .
  | Found nuclear charge :  34.0000
  | Found atomic mass :    78.9600000000000      amu
  | Found l_max for Hartree potential  :   6
  | Found cutoff potl. onset [A], width [A], scale factor :    4.00000    2.00000    1.00000
  | Threshold for basis-dependent cutoff potential is   0.100000E-03
  | Found data for basic radial integration grid :    55 points, outermost radius =    7.000 A
  | Found multiplier for basic radial grid :   2
  | Found angular grid specification: user-specified.
  | Specified grid contains     5 separate shells.
  | Check grid settings after all constraints further below.
  | Found free-atom valence shell :  4 s   2.000
  | Found free-atom valence shell :  4 p   4.000
  | Found free-atom valence shell :  3 d  10.000
  | Found free-ion valence shell :  4 s   1.000
  | Found free-ion valence shell :  4 p   3.000
  | Found free-ion valence shell :  3 d  10.000
  | Found hydrogenic basis function :  3 d   4.300
  | Found hydrogenic basis function :  2 p   1.600
  | Found hydrogenic basis function :  4 f   7.200
  | Found ionic basis function :  4 s , default cutoff radius.
  Species Se                  : Missing cutoff potential type.
  Defaulting to exp(1/x)/(1-x)^2 type cutoff potential.
  Species Se: No 'logarithmic' tag. Using default grid for free atom:
  | Default logarithmic grid data [bohr] : 0.1000E-03 0.1000E+03 0.1012E+01
  | Will include ionic basis functions of  2.0-fold positive Se                   ion.
  Species Se: On-site basis accuracy parameter (for Gram-Schmidt orthonormalisation) not specified.
  Using default value basis_acc =  0.1000000E-03.
  Species Se                  : Using default innermost maximum threshold i_radial=  2 for radial functions.
  Species Se                  : Default cutoff onset for free atom density etc. : 0.40000000E+01 AA.
  Species Se                  : Basic radial grid will be enhanced according to radial_multiplier =   2, to contain   111 grid points.
 
  Reading configuration options for species S                   .
  | Found nuclear charge :  16.0000
  | Found atomic mass :    32.0650000000000      amu
  | Found l_max for Hartree potential  :   6
  | Found cutoff potl. onset [A], width [A], scale factor :    4.00000    2.00000    1.00000
  | Threshold for basis-dependent cutoff potential is   0.100000E-03
  | Found data for basic radial integration grid :    44 points, outermost radius =    7.000 A
  | Found multiplier for basic radial grid :   2
  | Found angular grid specification: user-specified.
  | Specified grid contains     5 separate shells.
  | Check grid settings after all constraints further below.
  | Found free-atom valence shell :  3 s   2.000
  | Found free-atom valence shell :  3 p   4.000
  | Found free-ion valence shell :  3 s   1.000
  | Found free-ion valence shell :  3 p   3.000
  | Found ionic basis function :  3 d , default cutoff radius.
  | Found hydrogenic basis function :  2 p   1.800
  | Found hydrogenic basis function :  4 f   7.000
  | Found ionic basis function :  3 s , default cutoff radius.
  | Found hydrogenic extended basis function :  5 g  10.800
  Species S                   : Missing cutoff potential type.
  Defaulting to exp(1/x)/(1-x)^2 type cutoff potential.
  Species S : No 'logarithmic' tag. Using default grid for free atom:
  | Default logarithmic grid data [bohr] : 0.1000E-03 0.1000E+03 0.1012E+01
  | Will include ionic basis functions of  2.0-fold positive S                    ion.
  Species S : On-site basis accuracy parameter (for Gram-Schmidt orthonormalisation) not specified.
  Using default value basis_acc =  0.1000000E-03.
  Species S                   : Using default innermost maximum threshold i_radial=  2 for radial functions.
  Species S                   : Default cutoff onset for free atom density etc. : 0.40000000E+01 AA.
  Species S                   : Basic radial grid will be enhanced according to radial_multiplier =   2, to contain    89 grid points.
 
  Reading configuration options for species Mo                  .
  | Found nuclear charge :  42.0000
  | Found atomic mass :    95.9400000000000      amu
  | Found l_max for Hartree potential  :   6
  | Found cutoff potl. onset [A], width [A], scale factor :    4.00000    2.00000    1.00000
  | Threshold for basis-dependent cutoff potential is   0.100000E-03
  | Found data for basic radial integration grid :    59 points, outermost radius =    7.000 A
  | Found multiplier for basic radial grid :   2
  | Found angular grid specification: user-specified.
  | Specified grid contains     6 separate shells.
  | Check grid settings after all constraints further below.
  | Found free-atom valence shell :  5 s   1.000
  | Found free-atom valence shell :  4 p   6.000
  | Found free-atom valence shell :  4 d   5.000
  | Found free-ion valence shell :  5 s   0.000
  | Found free-ion valence shell :  4 p   6.000
  | Found free-ion valence shell :  4 d   4.000
  | Found hydrogenic basis function :  4 f   8.400
  | Found hydrogenic basis function :  3 d   2.800
  | Found ionic basis function :  5 p , default cutoff radius.
  | Found hydrogenic extended basis function :  5 g  12.000
  | Found ionic basis function :  5 s , default cutoff radius.
  Species Mo                  : Missing cutoff potential type.
  Defaulting to exp(1/x)/(1-x)^2 type cutoff potential.
  Species Mo: No 'logarithmic' tag. Using default grid for free atom:
  | Default logarithmic grid data [bohr] : 0.1000E-03 0.1000E+03 0.1012E+01
  | Will include ionic basis functions of  2.0-fold positive Mo                   ion.
  Species Mo: On-site basis accuracy parameter (for Gram-Schmidt orthonormalisation) not specified.
  Using default value basis_acc =  0.1000000E-03.
  Species Mo                  : Using default innermost maximum threshold i_radial=  2 for radial functions.
  Species Mo                  : Default cutoff onset for free atom density etc. : 0.40000000E+01 AA.
  Species Mo                  : Basic radial grid will be enhanced according to radial_multiplier =   2, to contain   119 grid points.
 
  Reading configuration options for species W                   .
  | Found nuclear charge :  74.0000
  | Found atomic mass :    183.840000000000      amu
  | Found l_max for Hartree potential  :   6
  | Found cutoff potl. onset [A], width [A], scale factor :    4.00000    2.00000    1.00000
  | Threshold for basis-dependent cutoff potential is   0.100000E-03
  | Found data for basic radial integration grid :    71 points, outermost radius =    7.000 A
  | Found multiplier for basic radial grid :   2
  | Found angular grid specification: user-specified.
  | Specified grid contains     6 separate shells.
  | Check grid settings after all constraints further below.
  | Found free-atom valence shell :  6 s   2.000
  | Found free-atom valence shell :  5 p   6.000
  | Found free-atom valence shell :  5 d   4.000
  | Found free-atom valence shell :  4 f  14.000
  | Found free-ion valence shell :  6 s   1.000
  | Found free-ion valence shell :  5 p   6.000
  | Found free-ion valence shell :  5 d   3.000
  | Found free-ion valence shell :  4 f  14.000
  | Found hydrogenic basis function :  4 f   7.800
  | Found hydrogenic basis function :  4 d   5.800
  | Found ionic basis function :  6 p , default cutoff radius.
  | Found hydrogenic extended basis function :  5 g  12.400
  | Found ionic basis function :  6 s , default cutoff radius.
  Species W                   : Missing cutoff potential type.
  Defaulting to exp(1/x)/(1-x)^2 type cutoff potential.
  Species W : No 'logarithmic' tag. Using default grid for free atom:
  | Default logarithmic grid data [bohr] : 0.1000E-03 0.1000E+03 0.1012E+01
  | Will include ionic basis functions of  2.0-fold positive W                    ion.
  Species W : On-site basis accuracy parameter (for Gram-Schmidt orthonormalisation) not specified.
  Using default value basis_acc =  0.1000000E-03.
  Species W                   : Using default innermost maximum threshold i_radial=  2 for radial functions.
  Species W                   : Default cutoff onset for free atom density etc. : 0.40000000E+01 AA.
  Species W                   : Basic radial grid will be enhanced according to radial_multiplier =   2, to contain   143 grid points.
 
  Finished reading input file 'control.in'.
 
------------------------------------------------------------


------------------------------------------------------------
          Reading geometry description geometry.in.
------------------------------------------------------------
  Vacuum level in z-axis :   0.700814E+00
  Found keyword 'hessian_file', indicating that this is the continuation of a structure optimization.
  Verifying the existence of the file 'hessian.aims' on all processors
  | The smallest distance between any two atoms is         1.93747713 AA.
  | The first atom of this pair is atom number                     38 .
  | The second atom of this pair is atom number                    39 .
  | Wigner-Seitz cell of the first atom image           0     0     0 .
  | (The Wigner-Seitz cell of the second atom is 0 0 0  by definition.)

  Symmetry information by spglib:
  | Precision set to  0.1E-04
  | Number of Operations  : 1
  | Space group           : 1
  | International         : P1 4
  | Schoenflies           : C1^1
  Input structure read successfully.
  The structure contains       76 atoms,  and a total of       2666.000 electrons.

  Input geometry:
  | Unit cell:
  |       15.72847685        0.00000000        0.00000000
  |       -7.86461685       13.62035640        0.00000000
  |        0.00000000        0.00000000      103.13570646
  | Atomic structure:
  |       Atom                x [A]            y [A]            z [A]
  |    1: Species W            -0.00045994        0.90761678       51.56718749
  |    2: Species S             1.57208785        1.81590162       53.13520178
  |    3: Species S             1.57275788        1.81165610       49.99877754
  |    4: Species W            -1.57297931        3.63141470       51.56557707
  |    5: Species S             0.00126772        4.54021703       53.13130411
  |    6: Species S            -0.00002142        4.53946165       49.99801059
  |    7: Species W            -3.14585553        6.35499532       51.56716173
  |    8: Species S            -1.57290972        7.26257977       53.13517775
  |    9: Species S            -1.57623854        7.26531401       49.99876527
  |   10: Species W            -4.71764830        9.07934808       51.56879905
  |   11: Species S            -3.14594222        9.98713681       53.13827042
  |   12: Species S            -3.14594444        9.98882552       50.00155337
  |   13: Species W            -6.29133310       11.80470841       51.56878867
  |   14: Species S            -4.71924033       12.71184195       53.13824611
  |   15: Species S            -4.71778562       12.71098102       50.00154914
  |   16: Species W             3.14489875        0.90647464       51.56877198
  |   17: Species S             4.71851127        1.81979185       53.13361038
  |   18: Species S             4.71850066        1.81244842       50.00088266
  |   19: Species W             1.57560591        3.62870781       51.56369975
  |   20: Species S             3.14438891        4.54251417       53.13120594
  |   21: Species S             3.14346302        4.52552359       49.98479646
  |   22: Species W            -0.00109403        6.35932771       51.56367722
  |   23: Species S             1.57473960        7.26087054       53.13120750
  |   24: Species S             1.55957021        7.26862516       49.98479058
  |   25: Species W            -1.57422345        9.07935556       51.56879777
  |   26: Species S             0.00360432        9.98533385       53.13366225
  |   27: Species S            -0.00272784        9.98899770       50.00093957
  |   28: Species W            -3.14599799       11.80363566       51.57062045
  |   29: Species S            -1.57280949       12.71185307       53.13824131
  |   30: Species S            -1.57426096       12.71097844       50.00153645
  |   31: Species W             6.29213914        0.90646964       51.56875299
  |   32: Species S             7.86494226        1.81590133       53.13513739
  |   33: Species S             7.86426069        1.81165142       49.99874729
  |   34: Species W             4.71845032        3.63469310       51.56227719
  |   35: Species S             6.29248525        4.54250740       53.13118641
  |   36: Species S             6.29339041        4.52553953       49.98476972
  |   37: Species W             3.11940080        6.34042182       51.54941219
  |   38: Species S             4.71834354        7.26340131       53.07030007
  |   39: Species S             4.71833443        7.26314693       55.00777718
  |   40: Species S             4.71834884        7.26347410       50.01059832
  |   41: Species W             1.57546119        9.07792132       51.56232897
  |   42: Species S             3.14873813        9.98701010       53.13125302
  |   43: Species S             3.13447873        9.99629973       49.98482330
  |   44: Species W            -0.00067874       11.80473895       51.56880067
  |   45: Species S             1.57336644       12.71199430       53.13519966
  |   46: Species S             1.56936420       12.71347425       49.99878694
  |   47: Species W             9.43752868        0.90758945       51.56713818
  |   48: Species S            11.01064556        1.81577561       53.13416378
  |   49: Species S            11.00971205        1.81521429       49.99816299
  |   50: Species W             7.86129700        3.62872168       51.56364705
  |   51: Species S             9.43559910        4.54018052       53.13130053
  |   52: Species S             9.43689526        4.53947149       49.99796837
  |   53: Species W             6.31731088        6.34042407       51.54941652
  |   54: Species S             7.86196573        7.26086511       53.13123186
  |   55: Species S             7.87714142        7.26862124       49.98484468
  |   56: Species W             4.71829568        9.10964877       51.54946488
  |   57: Species S             6.28782054        9.98701391       53.13127056
  |   58: Species S             6.30209577        9.99630898       49.98483991
  |   59: Species W             3.14159499       11.80250173       51.56371845
  |   60: Species S             4.71819993       12.71004697       53.13133694
  |   61: Species S             4.71821114       12.71150083       49.99804505
  |   62: Species W            12.58276351        0.90738352       51.56557659
  |   63: Species S            14.15484202        1.81578316       53.13418452
  |   64: Species S            14.15579967        1.81522550       49.99821174
  |   65: Species W            11.00986576        3.63139982       51.56554818
  |   66: Species S            12.58266059        4.53855878       53.13417329
  |   67: Species S            12.58267629        4.53965524       49.99819566
  |   68: Species W             9.43784761        6.35929457       51.56369109
  |   69: Species S            11.00964376        7.26256825       53.13517709
  |   70: Species S            11.01295458        7.26529573       49.99878167
  |   71: Species W             7.86114974        9.07793727       51.56235046
  |   72: Species S             9.43298004        9.98532236       53.13368728
  |   73: Species S             9.43930101        9.98898202       50.00092681
  |   74: Species W             6.29483418       11.80250882       51.56373195
  |   75: Species S             7.86306506       12.71198311       53.13518961
  |   76: Species S             7.86705639       12.71348901       49.99882219

  Lattice parameters for 3D lattice (in Angstroms) :    15.728477   15.727883  103.135706
  Angle(s) between unit vectors (in degrees)       :    90.000000   90.000000  120.002841


  Quantities derived from the lattice vectors:
  | Reciprocal lattice vector 1:  0.399478  0.230665  0.000000
  | Reciprocal lattice vector 2:  0.000000  0.461308  0.000000
  | Reciprocal lattice vector 3:  0.000000  0.000000  0.060922
  | Unit cell volume                               :   0.220945E+05  A^3

  Fractional coordinates:
                         L1                L2                L3
       atom_frac         0.03329075        0.06663679        0.49999355  W
       atom_frac         0.16661621        0.13332262        0.51519695  S
       atom_frac         0.16650295        0.13301092        0.48478630  S
       atom_frac         0.03330640        0.26661672        0.49997793  W
       atom_frac         0.16675889        0.33334055        0.51515916  S
       atom_frac         0.16664920        0.33328509        0.48477886  S
       atom_frac         0.03329139        0.46658069        0.49999330  W
       atom_frac         0.16661644        0.53321511        0.51519672  S
       atom_frac         0.16650517        0.53341585        0.48478618  S
       atom_frac         0.03337361        0.66660136        0.50000917  W
       atom_frac         0.16662733        0.73325077        0.51522671  S
       atom_frac         0.16668919        0.73337475        0.48481321  S
       atom_frac         0.03337252        0.86669600        0.50000907  W
       atom_frac         0.16662678        0.93329731        0.51522647  S
       atom_frac         0.16668766        0.93323410        0.48481317  S
       atom_frac         0.23322742        0.06655293        0.50000891  W
       atom_frac         0.36680531        0.13360824        0.51518152  S
       atom_frac         0.36653505        0.13306909        0.48480671  S
       atom_frac         0.23339076        0.26641798        0.49995973  W
       atom_frac         0.36667956        0.33350920        0.51515821  S
       atom_frac         0.36599694        0.33226176        0.48465074  S
       atom_frac         0.23339106        0.46689877        0.49995951  W
       atom_frac         0.36667792        0.53308961        0.51515823  S
       atom_frac         0.36599815        0.53365895        0.48465068  S
       atom_frac         0.23322952        0.66660191        0.50000916  W
       atom_frac         0.36680600        0.73311840        0.51518203  S
       atom_frac         0.36653791        0.73338740        0.48480726  S
       atom_frac         0.23331023        0.86661724        0.50002683  W
       atom_frac         0.36667395        0.93329812        0.51522642  S
       atom_frac         0.36654955        0.93323391        0.48481305  S
       atom_frac         0.43332547        0.06655256        0.50000872  W
       atom_frac         0.56670926        0.13332260        0.51519633  S
       atom_frac         0.56650990        0.13301057        0.48478601  S
       atom_frac         0.43342923        0.26685741        0.49994593  W
       atom_frac         0.56683196        0.33350870        0.51515802  S
       atom_frac         0.56626660        0.33226293        0.48465048  S
       atom_frac         0.43109478        0.46551071        0.49982120  W
       atom_frac         0.56663786        0.53327542        0.51456767  S
       atom_frac         0.56662794        0.53325675        0.53335338  S
       atom_frac         0.56664087        0.53328077        0.48490091  S
       atom_frac         0.43343050        0.66649661        0.49994644  W
       atom_frac         0.56683183        0.73324147        0.51515867  S
       atom_frac         0.56626627        0.73392351        0.48465100  S
       atom_frac         0.43332682        0.86669824        0.50000919  W
       atom_frac         0.56670968        0.93330849        0.51519693  S
       atom_frac         0.56650956        0.93341715        0.48478639  S
       atom_frac         0.63334713        0.06663478        0.49999307  W
       atom_frac         0.76670515        0.13331337        0.51518689  S
       atom_frac         0.76662519        0.13327216        0.48478034  S
       atom_frac         0.63302890        0.26641900        0.49995922  W
       atom_frac         0.76658241        0.33333786        0.51515913  S
       atom_frac         0.76663879        0.33328581        0.48477845  S
       atom_frac         0.63441461        0.46551088        0.49982124  W
       atom_frac         0.76641294        0.53308922        0.51515846  S
       atom_frac         0.76766253        0.53365867        0.48465121  S
       atom_frac         0.63441337        0.66882602        0.49982171  W
       atom_frac         0.76641153        0.73324175        0.51515884  S
       atom_frac         0.76766037        0.73392419        0.48465116  S
       atom_frac         0.63302714        0.86653399        0.49995991  W
       atom_frac         0.76658340        0.93316552        0.51515948  S
       atom_frac         0.76663748        0.93327226        0.48477920  S
       atom_frac         0.83331029        0.06661966        0.49997793  W
       atom_frac         0.96661012        0.13331392        0.51518709  S
       atom_frac         0.96665054        0.13327298        0.48478081  S
       atom_frac         0.83330990        0.26661562        0.49997765  W
       atom_frac         0.96660973        0.33321880        0.51518698  S
       atom_frac         0.96665098        0.33329930        0.48478066  S
       atom_frac         0.83350782        0.46689634        0.49995964  W
       atom_frac         0.96660152        0.53321426        0.51519671  S
       atom_frac         0.96691215        0.53341451        0.48478634  S
       atom_frac         0.83306855        0.66649778        0.49994665  W
       atom_frac         0.96631536        0.73311755        0.51518227  S
       atom_frac         0.96685159        0.73338624        0.48480714  S
       atom_frac         0.83350703        0.86653451        0.49996004  W
       atom_frac         0.96660169        0.93330767        0.51519684  S
       atom_frac         0.96691074        0.93341823        0.48478673  S

  Initial moments and charges:
  |  Atom   Moment         Charge        Species
  |     1   0.100000E+01   0.000000E+00   W
  |     2   0.100000E+01   0.000000E+00   S
  |     3   0.100000E+01   0.000000E+00   S
  |     4   0.100000E+01   0.000000E+00   W
  |     5   0.100000E+01   0.000000E+00   S
  |     6   0.100000E+01   0.000000E+00   S
  |     7   0.100000E+01   0.000000E+00   W
  |     8   0.100000E+01   0.000000E+00   S
  |     9   0.100000E+01   0.000000E+00   S
  |    10   0.100000E+01   0.000000E+00   W
  |    11   0.100000E+01   0.000000E+00   S
  |    12   0.100000E+01   0.000000E+00   S
  |    13   0.100000E+01   0.000000E+00   W
  |    14   0.100000E+01   0.000000E+00   S
  |    15   0.100000E+01   0.000000E+00   S
  |    16   0.100000E+01   0.000000E+00   W
  |    17   0.100000E+01   0.000000E+00   S
  |    18   0.100000E+01   0.000000E+00   S
  |    19   0.100000E+01   0.000000E+00   W
  |    20   0.100000E+01   0.000000E+00   S
  |    21   0.100000E+01   0.000000E+00   S
  |    22   0.100000E+01   0.000000E+00   W
  |    23   0.100000E+01   0.000000E+00   S
  |    24   0.100000E+01   0.000000E+00   S
  |    25   0.100000E+01   0.000000E+00   W
  |    26   0.100000E+01   0.000000E+00   S
  |    27   0.100000E+01   0.000000E+00   S
  |    28   0.100000E+01   0.000000E+00   W
  |    29   0.100000E+01   0.000000E+00   S
  |    30   0.100000E+01   0.000000E+00   S
  |    31   0.100000E+01   0.000000E+00   W
  |    32   0.100000E+01   0.000000E+00   S
  |    33   0.100000E+01   0.000000E+00   S
  |    34   0.100000E+01   0.000000E+00   W
  |    35   0.100000E+01   0.000000E+00   S
  |    36   0.100000E+01   0.000000E+00   S
  |    37   0.100000E+01   0.000000E+00   W
  |    38   0.100000E+01   0.000000E+00   S
  |    39   0.100000E+01   0.000000E+00   S
  |    40   0.100000E+01   0.000000E+00   S
  |    41   0.100000E+01   0.000000E+00   W
  |    42   0.100000E+01   0.000000E+00   S
  |    43   0.100000E+01   0.000000E+00   S
  |    44   0.100000E+01   0.000000E+00   W
  |    45   0.100000E+01   0.000000E+00   S
  |    46   0.100000E+01   0.000000E+00   S
  |    47   0.100000E+01   0.000000E+00   W
  |    48   0.100000E+01   0.000000E+00   S
  |    49   0.100000E+01   0.000000E+00   S
  |    50   0.100000E+01   0.000000E+00   W
  |    51   0.100000E+01   0.000000E+00   S
  |    52   0.100000E+01   0.000000E+00   S
  |    53   0.100000E+01   0.000000E+00   W
  |    54   0.100000E+01   0.000000E+00   S
  |    55   0.100000E+01   0.000000E+00   S
  |    56   0.100000E+01   0.000000E+00   W
  |    57   0.100000E+01   0.000000E+00   S
  |    58   0.100000E+01   0.000000E+00   S
  |    59   0.100000E+01   0.000000E+00   W
  |    60   0.100000E+01   0.000000E+00   S
  |    61   0.100000E+01   0.000000E+00   S
  |    62   0.100000E+01   0.000000E+00   W
  |    63   0.100000E+01   0.000000E+00   S
  |    64   0.100000E+01   0.000000E+00   S
  |    65   0.100000E+01   0.000000E+00   W
  |    66   0.100000E+01   0.000000E+00   S
  |    67   0.100000E+01   0.000000E+00   S
  |    68   0.100000E+01   0.000000E+00   W
  |    69   0.100000E+01   0.000000E+00   S
  |    70   0.100000E+01   0.000000E+00   S
  |    71   0.100000E+01   0.000000E+00   W
  |    72   0.100000E+01   0.000000E+00   S
  |    73   0.100000E+01   0.000000E+00   S
  |    74   0.100000E+01   0.000000E+00   W
  |    75   0.100000E+01   0.000000E+00   S
  |    76   0.100000E+01   0.000000E+00   S

 
  Finished reading input file 'control.in'.
 

------------------------------------------------------------
          Reading geometry description geometry.in.
------------------------------------------------------------
 
  Consistency checks for stacksize environment parameter are next.
 
  | Maximum stacksize for task 0: unlimited
  | Maximum stacksize for task 1: unlimited
  | Maximum stacksize for task 2: unlimited
  | Maximum stacksize for task 3: unlimited
  | Maximum stacksize for task 4: unlimited
  | Maximum stacksize for task 5: unlimited
  | Maximum stacksize for task 6: unlimited
  | Maximum stacksize for task 7: unlimited
  | Maximum stacksize for task 8: unlimited
  | Maximum stacksize for task 9: unlimited
  | Maximum stacksize for task 10: unlimited
  | Maximum stacksize for task 11: unlimited
  | Maximum stacksize for task 12: unlimited
  | Maximum stacksize for task 13: unlimited
  | Maximum stacksize for task 14: unlimited
  | Maximum stacksize for task 15: unlimited
  | Maximum stacksize for task 16: unlimited
  | Maximum stacksize for task 17: unlimited
  | Maximum stacksize for task 18: unlimited
  | Maximum stacksize for task 19: unlimited
  | Maximum stacksize for task 20: unlimited
  | Maximum stacksize for task 21: unlimited
  | Maximum stacksize for task 22: unlimited
  | Maximum stacksize for task 23: unlimited
  | Maximum stacksize for task 24: unlimited
  | Maximum stacksize for task 25: unlimited
  | Maximum stacksize for task 26: unlimited
  | Maximum stacksize for task 27: unlimited
  | Maximum stacksize for task 28: unlimited
  | Maximum stacksize for task 29: unlimited
  | Maximum stacksize for task 30: unlimited
  | Maximum stacksize for task 31: unlimited
  | Maximum stacksize for task 32: unlimited
  | Maximum stacksize for task 33: unlimited
  | Maximum stacksize for task 34: unlimited
  | Maximum stacksize for task 35: unlimited
  | Maximum stacksize for task 36: unlimited
  | Maximum stacksize for task 37: unlimited
  | Maximum stacksize for task 38: unlimited
  | Maximum stacksize for task 39: unlimited
  | Maximum stacksize for task 40: unlimited
  | Maximum stacksize for task 41: unlimited
  | Maximum stacksize for task 42: unlimited
  | Maximum stacksize for task 43: unlimited
  | Maximum stacksize for task 44: unlimited
  | Maximum stacksize for task 45: unlimited
  | Maximum stacksize for task 46: unlimited
  | Maximum stacksize for task 47: unlimited
  | Maximum stacksize for task 48: unlimited
  | Maximum stacksize for task 49: unlimited
  | Maximum stacksize for task 50: unlimited
  | Maximum stacksize for task 51: unlimited
  | Maximum stacksize for task 52: unlimited
  | Maximum stacksize for task 53: unlimited
  | Maximum stacksize for task 54: unlimited
  | Maximum stacksize for task 55: unlimited
  | Maximum stacksize for task 56: unlimited
  | Maximum stacksize for task 57: unlimited
  | Maximum stacksize for task 58: unlimited
  | Maximum stacksize for task 59: unlimited
  | Maximum stacksize for task 60: unlimited
  | Maximum stacksize for task 61: unlimited
  | Maximum stacksize for task 62: unlimited
  | Maximum stacksize for task 63: unlimited
  | Maximum stacksize for task 64: unlimited
  | Maximum stacksize for task 65: unlimited
  | Maximum stacksize for task 66: unlimited
  | Maximum stacksize for task 67: unlimited
  | Maximum stacksize for task 68: unlimited
  | Maximum stacksize for task 69: unlimited
  | Maximum stacksize for task 70: unlimited
  | Maximum stacksize for task 71: unlimited
  | Maximum stacksize for task 72: unlimited
  | Maximum stacksize for task 73: unlimited
  | Maximum stacksize for task 74: unlimited
  | Maximum stacksize for task 75: unlimited
  | Maximum stacksize for task 76: unlimited
  | Maximum stacksize for task 77: unlimited
  | Maximum stacksize for task 78: unlimited
  | Maximum stacksize for task 79: unlimited
  | Maximum stacksize for task 80: unlimited
  | Maximum stacksize for task 81: unlimited
  | Maximum stacksize for task 82: unlimited
  | Maximum stacksize for task 83: unlimited
  | Maximum stacksize for task 84: unlimited
  | Maximum stacksize for task 85: unlimited
  | Maximum stacksize for task 86: unlimited
  | Maximum stacksize for task 87: unlimited
  | Maximum stacksize for task 88: unlimited
  | Maximum stacksize for task 89: unlimited
  | Maximum stacksize for task 90: unlimited
  | Maximum stacksize for task 91: unlimited
  | Maximum stacksize for task 92: unlimited
  | Maximum stacksize for task 93: unlimited
  | Maximum stacksize for task 94: unlimited
  | Maximum stacksize for task 95: unlimited
  | Maximum stacksize for task 96: unlimited
  | Maximum stacksize for task 97: unlimited
  | Maximum stacksize for task 98: unlimited
  | Maximum stacksize for task 99: unlimited
  | Maximum stacksize for task 100: unlimited
  | Maximum stacksize for task 101: unlimited
  | Maximum stacksize for task 102: unlimited
  | Maximum stacksize for task 103: unlimited
  | Maximum stacksize for task 104: unlimited
  | Maximum stacksize for task 105: unlimited
  | Maximum stacksize for task 106: unlimited
  | Maximum stacksize for task 107: unlimited
  | Maximum stacksize for task 108: unlimited
  | Maximum stacksize for task 109: unlimited
  | Maximum stacksize for task 110: unlimited
  | Maximum stacksize for task 111: unlimited
  | Maximum stacksize for task 112: unlimited
  | Maximum stacksize for task 113: unlimited
  | Maximum stacksize for task 114: unlimited
  | Maximum stacksize for task 115: unlimited
  | Maximum stacksize for task 116: unlimited
  | Maximum stacksize for task 117: unlimited
  | Maximum stacksize for task 118: unlimited
  | Maximum stacksize for task 119: unlimited
  | Maximum stacksize for task 120: unlimited
  | Maximum stacksize for task 121: unlimited
  | Maximum stacksize for task 122: unlimited
  | Maximum stacksize for task 123: unlimited
  | Maximum stacksize for task 124: unlimited
  | Maximum stacksize for task 125: unlimited
  | Maximum stacksize for task 126: unlimited
  | Maximum stacksize for task 127: unlimited
  | Maximum stacksize for task 128: unlimited
  | Maximum stacksize for task 129: unlimited
  | Maximum stacksize for task 130: unlimited
  | Maximum stacksize for task 131: unlimited
  | Maximum stacksize for task 132: unlimited
  | Maximum stacksize for task 133: unlimited
  | Maximum stacksize for task 134: unlimited
  | Maximum stacksize for task 135: unlimited
  | Maximum stacksize for task 136: unlimited
  | Maximum stacksize for task 137: unlimited
  | Maximum stacksize for task 138: unlimited
  | Maximum stacksize for task 139: unlimited
  | Maximum stacksize for task 140: unlimited
  | Maximum stacksize for task 141: unlimited
  | Maximum stacksize for task 142: unlimited
  | Maximum stacksize for task 143: unlimited
  | Maximum stacksize for task 144: unlimited
  | Maximum stacksize for task 145: unlimited
  | Maximum stacksize for task 146: unlimited
  | Maximum stacksize for task 147: unlimited
  | Maximum stacksize for task 148: unlimited
  | Maximum stacksize for task 149: unlimited
  | Maximum stacksize for task 150: unlimited
  | Maximum stacksize for task 151: unlimited
  | Maximum stacksize for task 152: unlimited
  | Maximum stacksize for task 153: unlimited
  | Maximum stacksize for task 154: unlimited
  | Maximum stacksize for task 155: unlimited
  | Maximum stacksize for task 156: unlimited
  | Maximum stacksize for task 157: unlimited
  | Maximum stacksize for task 158: unlimited
  | Maximum stacksize for task 159: unlimited
  | Maximum stacksize for task 160: unlimited
  | Maximum stacksize for task 161: unlimited
  | Maximum stacksize for task 162: unlimited
  | Maximum stacksize for task 163: unlimited
  | Maximum stacksize for task 164: unlimited
  | Maximum stacksize for task 165: unlimited
  | Maximum stacksize for task 166: unlimited
  | Maximum stacksize for task 167: unlimited
  | Maximum stacksize for task 168: unlimited
  | Maximum stacksize for task 169: unlimited
  | Maximum stacksize for task 170: unlimited
  | Maximum stacksize for task 171: unlimited
  | Maximum stacksize for task 172: unlimited
  | Maximum stacksize for task 173: unlimited
  | Maximum stacksize for task 174: unlimited
  | Maximum stacksize for task 175: unlimited
  | Maximum stacksize for task 176: unlimited
  | Maximum stacksize for task 177: unlimited
  | Maximum stacksize for task 178: unlimited
  | Maximum stacksize for task 179: unlimited
  | Maximum stacksize for task 180: unlimited
  | Maximum stacksize for task 181: unlimited
  | Maximum stacksize for task 182: unlimited
  | Maximum stacksize for task 183: unlimited
  | Maximum stacksize for task 184: unlimited
  | Maximum stacksize for task 185: unlimited
  | Maximum stacksize for task 186: unlimited
  | Maximum stacksize for task 187: unlimited
  | Maximum stacksize for task 188: unlimited
  | Maximum stacksize for task 189: unlimited
  | Maximum stacksize for task 190: unlimited
  | Maximum stacksize for task 191: unlimited
  | Maximum stacksize for task 192: unlimited
  | Maximum stacksize for task 193: unlimited
  | Maximum stacksize for task 194: unlimited
  | Maximum stacksize for task 195: unlimited
  | Maximum stacksize for task 196: unlimited
  | Maximum stacksize for task 197: unlimited
  | Maximum stacksize for task 198: unlimited
  | Maximum stacksize for task 199: unlimited
  | Maximum stacksize for task 200: unlimited
  | Maximum stacksize for task 201: unlimited
  | Maximum stacksize for task 202: unlimited
  | Maximum stacksize for task 203: unlimited
  | Maximum stacksize for task 204: unlimited
  | Maximum stacksize for task 205: unlimited
  | Maximum stacksize for task 206: unlimited
  | Maximum stacksize for task 207: unlimited
  | Maximum stacksize for task 208: unlimited
  | Maximum stacksize for task 209: unlimited
  | Maximum stacksize for task 210: unlimited
  | Maximum stacksize for task 211: unlimited
  | Maximum stacksize for task 212: unlimited
  | Maximum stacksize for task 213: unlimited
  | Maximum stacksize for task 214: unlimited
  | Maximum stacksize for task 215: unlimited
  | Maximum stacksize for task 216: unlimited
  | Maximum stacksize for task 217: unlimited
  | Maximum stacksize for task 218: unlimited
  | Maximum stacksize for task 219: unlimited
  | Maximum stacksize for task 220: unlimited
  | Maximum stacksize for task 221: unlimited
  | Maximum stacksize for task 222: unlimited
  | Maximum stacksize for task 223: unlimited
  | Maximum stacksize for task 224: unlimited
  | Maximum stacksize for task 225: unlimited
  | Maximum stacksize for task 226: unlimited
  | Maximum stacksize for task 227: unlimited
  | Maximum stacksize for task 228: unlimited
  | Maximum stacksize for task 229: unlimited
  | Maximum stacksize for task 230: unlimited
  | Maximum stacksize for task 231: unlimited
  | Maximum stacksize for task 232: unlimited
  | Maximum stacksize for task 233: unlimited
  | Maximum stacksize for task 234: unlimited
  | Maximum stacksize for task 235: unlimited
  | Maximum stacksize for task 236: unlimited
  | Maximum stacksize for task 237: unlimited
  | Maximum stacksize for task 238: unlimited
  | Maximum stacksize for task 239: unlimited
  | Maximum stacksize for task 240: unlimited
  | Maximum stacksize for task 241: unlimited
  | Maximum stacksize for task 242: unlimited
  | Maximum stacksize for task 243: unlimited
  | Maximum stacksize for task 244: unlimited
  | Maximum stacksize for task 245: unlimited
  | Maximum stacksize for task 246: unlimited
  | Maximum stacksize for task 247: unlimited
  | Maximum stacksize for task 248: unlimited
  | Maximum stacksize for task 249: unlimited
  | Maximum stacksize for task 250: unlimited
  | Maximum stacksize for task 251: unlimited
  | Maximum stacksize for task 252: unlimited
  | Maximum stacksize for task 253: unlimited
  | Maximum stacksize for task 254: unlimited
  | Maximum stacksize for task 255: unlimited
  | Maximum stacksize for task 256: unlimited
  | Maximum stacksize for task 257: unlimited
  | Maximum stacksize for task 258: unlimited
  | Maximum stacksize for task 259: unlimited
  | Maximum stacksize for task 260: unlimited
  | Maximum stacksize for task 261: unlimited
  | Maximum stacksize for task 262: unlimited
  | Maximum stacksize for task 263: unlimited
  | Maximum stacksize for task 264: unlimited
  | Maximum stacksize for task 265: unlimited
  | Maximum stacksize for task 266: unlimited
  | Maximum stacksize for task 267: unlimited
  | Maximum stacksize for task 268: unlimited
  | Maximum stacksize for task 269: unlimited
  | Maximum stacksize for task 270: unlimited
  | Maximum stacksize for task 271: unlimited
  | Maximum stacksize for task 272: unlimited
  | Maximum stacksize for task 273: unlimited
  | Maximum stacksize for task 274: unlimited
  | Maximum stacksize for task 275: unlimited
  | Maximum stacksize for task 276: unlimited
  | Maximum stacksize for task 277: unlimited
  | Maximum stacksize for task 278: unlimited
  | Maximum stacksize for task 279: unlimited
  | Maximum stacksize for task 280: unlimited
  | Maximum stacksize for task 281: unlimited
  | Maximum stacksize for task 282: unlimited
  | Maximum stacksize for task 283: unlimited
  | Maximum stacksize for task 284: unlimited
  | Maximum stacksize for task 285: unlimited
  | Maximum stacksize for task 286: unlimited
  | Maximum stacksize for task 287: unlimited
  | Current stacksize for task 0: unlimited
  | Current stacksize for task 1: unlimited
  | Current stacksize for task 2: unlimited
  | Current stacksize for task 3: unlimited
  | Current stacksize for task 4: unlimited
  | Current stacksize for task 5: unlimited
  | Current stacksize for task 6: unlimited
  | Current stacksize for task 7: unlimited
  | Current stacksize for task 8: unlimited
  | Current stacksize for task 9: unlimited
  | Current stacksize for task 10: unlimited
  | Current stacksize for task 11: unlimited
  | Current stacksize for task 12: unlimited
  | Current stacksize for task 13: unlimited
  | Current stacksize for task 14: unlimited
  | Current stacksize for task 15: unlimited
  | Current stacksize for task 16: unlimited
  | Current stacksize for task 17: unlimited
  | Current stacksize for task 18: unlimited
  | Current stacksize for task 19: unlimited
  | Current stacksize for task 20: unlimited
  | Current stacksize for task 21: unlimited
  | Current stacksize for task 22: unlimited
  | Current stacksize for task 23: unlimited
  | Current stacksize for task 24: unlimited
  | Current stacksize for task 25: unlimited
  | Current stacksize for task 26: unlimited
  | Current stacksize for task 27: unlimited
  | Current stacksize for task 28: unlimited
  | Current stacksize for task 29: unlimited
  | Current stacksize for task 30: unlimited
  | Current stacksize for task 31: unlimited
  | Current stacksize for task 32: unlimited
  | Current stacksize for task 33: unlimited
  | Current stacksize for task 34: unlimited
  | Current stacksize for task 35: unlimited
  | Current stacksize for task 36: unlimited
  | Current stacksize for task 37: unlimited
  | Current stacksize for task 38: unlimited
  | Current stacksize for task 39: unlimited
  | Current stacksize for task 40: unlimited
  | Current stacksize for task 41: unlimited
  | Current stacksize for task 42: unlimited
  | Current stacksize for task 43: unlimited
  | Current stacksize for task 44: unlimited
  | Current stacksize for task 45: unlimited
  | Current stacksize for task 46: unlimited
  | Current stacksize for task 47: unlimited
  | Current stacksize for task 48: unlimited
  | Current stacksize for task 49: unlimited
  | Current stacksize for task 50: unlimited
  | Current stacksize for task 51: unlimited
  | Current stacksize for task 52: unlimited
  | Current stacksize for task 53: unlimited
  | Current stacksize for task 54: unlimited
  | Current stacksize for task 55: unlimited
  | Current stacksize for task 56: unlimited
  | Current stacksize for task 57: unlimited
  | Current stacksize for task 58: unlimited
  | Current stacksize for task 59: unlimited
  | Current stacksize for task 60: unlimited
  | Current stacksize for task 61: unlimited
  | Current stacksize for task 62: unlimited
  | Current stacksize for task 63: unlimited
  | Current stacksize for task 64: unlimited
  | Current stacksize for task 65: unlimited
  | Current stacksize for task 66: unlimited
  | Current stacksize for task 67: unlimited
  | Current stacksize for task 68: unlimited
  | Current stacksize for task 69: unlimited
  | Current stacksize for task 70: unlimited
  | Current stacksize for task 71: unlimited
  | Current stacksize for task 72: unlimited
  | Current stacksize for task 73: unlimited
  | Current stacksize for task 74: unlimited
  | Current stacksize for task 75: unlimited
  | Current stacksize for task 76: unlimited
  | Current stacksize for task 77: unlimited
  | Current stacksize for task 78: unlimited
  | Current stacksize for task 79: unlimited
  | Current stacksize for task 80: unlimited
  | Current stacksize for task 81: unlimited
  | Current stacksize for task 82: unlimited
  | Current stacksize for task 83: unlimited
  | Current stacksize for task 84: unlimited
  | Current stacksize for task 85: unlimited
  | Current stacksize for task 86: unlimited
  | Current stacksize for task 87: unlimited
  | Current stacksize for task 88: unlimited
  | Current stacksize for task 89: unlimited
  | Current stacksize for task 90: unlimited
  | Current stacksize for task 91: unlimited
  | Current stacksize for task 92: unlimited
  | Current stacksize for task 93: unlimited
  | Current stacksize for task 94: unlimited
  | Current stacksize for task 95: unlimited
  | Current stacksize for task 96: unlimited
  | Current stacksize for task 97: unlimited
  | Current stacksize for task 98: unlimited
  | Current stacksize for task 99: unlimited
  | Current stacksize for task 100: unlimited
  | Current stacksize for task 101: unlimited
  | Current stacksize for task 102: unlimited
  | Current stacksize for task 103: unlimited
  | Current stacksize for task 104: unlimited
  | Current stacksize for task 105: unlimited
  | Current stacksize for task 106: unlimited
  | Current stacksize for task 107: unlimited
  | Current stacksize for task 108: unlimited
  | Current stacksize for task 109: unlimited
  | Current stacksize for task 110: unlimited
  | Current stacksize for task 111: unlimited
  | Current stacksize for task 112: unlimited
  | Current stacksize for task 113: unlimited
  | Current stacksize for task 114: unlimited
  | Current stacksize for task 115: unlimited
  | Current stacksize for task 116: unlimited
  | Current stacksize for task 117: unlimited
[...]
   3356       0.00000                      10.544843          10.594766             0.000003
   3357       0.00000                      10.544882          10.608038             0.013271
   3358       0.00000                      10.544885          10.608042             0.000004
   3359       0.00000                      10.572952          10.645491             0.037449
   3360       0.00000                      10.572955          10.645495             0.000004
   3361       0.00000                      10.573092          10.652117             0.006623
   3362       0.00000                      10.573095          10.652121             0.000004
   3363       0.00000                      10.640387          10.656553             0.004433
   3364       0.00000                      10.640390          10.656557             0.000004
   3365       0.00000                      10.643703          10.664049             0.007492
   3366       0.00000                      10.643709          10.664055             0.000006
   3367       0.00000                      10.644010          10.670871             0.006816
   3368       0.00000                      10.644015          10.670874             0.000003
   3369       0.00000                      10.644358          10.675275             0.004401
   3370       0.00000                      10.644362          10.675276             0.000001
   3371       0.00000                      10.657636          10.683182             0.007906
   3372       0.00000                      10.657642          10.683183             0.000001
   3373       0.00000                      10.665889          10.725666             0.042483
   3374       0.00000                      10.665895          10.725667             0.000001
   3375       0.00000                      10.666226          10.727753             0.002086
   3376       0.00000                      10.666232          10.727757             0.000003
   3377       0.00000                      10.666294          10.740091             0.012334
   3378       0.00000                      10.666300          10.740095             0.000003
   3379       0.00000                      10.678529          10.756893             0.016799
   3380       0.00000                      10.678533          10.756896             0.000002
   3381       0.00000                      10.678813          10.759508             0.002613
   3382       0.00000                      10.678817          10.759509             0.000001
   3383       0.00000                      10.681413          10.782048             0.022539
   3384       0.00000                      10.681417          10.782048             0.000000
   3385       0.00000                      10.711649          10.794170             0.012121
   3386       0.00000                      10.711654          10.794171             0.000001
   3387       0.00000                      10.717148          10.807528             0.013357
   3388       0.00000                      10.717152          10.807529             0.000001
   3389       0.00000                      10.717301          10.826766             0.019238
   3390       0.00000                      10.717305          10.826767             0.000000
   3391       0.00000                      10.955153          11.109263             0.282496
   3392       0.00000                      10.955155          11.109266             0.000003
   3393       0.00000                      10.981724          11.114311             0.005045
   3394       0.00000                      10.981727          11.114313             0.000002
   3395       0.00000                      10.982061          11.139901             0.025588
   3396       0.00000                      10.982064          11.139903             0.000002
   3397       0.00000                      11.046119          11.210359             0.070457
   3398       0.00000                      11.046121          11.210362             0.000003
   3399       0.00000                      11.046471          11.224615             0.014253
   3400       0.00000                      11.046474          11.224618             0.000003
   3401       0.00000                      11.120484          11.321716             0.097098
   3402       0.00000                      11.120486          11.321718             0.000002
   3403       0.00000                      11.454883          11.525457             0.203739
   3404       0.00000                      11.454887          11.525461             0.000004
   3405       0.00000                      11.455018          11.562913             0.037453
   3406       0.00000                      11.455023          11.562918             0.000004
   3407       0.00000                      11.587516          11.628099             0.065181
   3408       0.00000                      11.587522          11.628104             0.000005
   3409       0.00000                      11.587642          11.691631             0.063527
   3410       0.00000                      11.587647          11.691636             0.000005
   3411       0.00000                      11.821081          11.836678             0.145042
   3412       0.00000                      11.821087          11.836683             0.000005
   3413       0.00000                      11.821270          11.850542             0.013859
   3414       0.00000                      11.821276          11.850548             0.000006
   3415       0.00000                      11.856409          11.885379             0.034831
   3416       0.00000                      11.856415          11.885385             0.000006
   3417       0.00000                      11.856492          11.887442             0.002058
   3418       0.00000                      11.856498          11.887449             0.000006
   3419       0.00000                      11.859911          11.892757             0.005308
   3420       0.00000                      11.859918          11.892763             0.000006
   3421       0.00000                      11.869610          11.897560             0.004797
   3422       0.00000                      11.869617          11.897566             0.000006

  What follows are estimated values for band gap, HOMO, LUMO, etc.
  | They are estimated on a discrete k-point grid and not necessarily exact.
  | For converged numbers, create a DOS and/or band structure plot on a denser k-grid.

  Highest occupied state (VBM) at     -6.12326295 eV (relative to internal zero)
  | Occupation number:      1.00000000
  | K-point:       6 at    0.250000    0.250000    0.000000 (in units of recip. lattice)

  Lowest unoccupied state (CBM) at    -3.88085780 eV (relative to internal zero)
  | Occupation number:      0.00000000
  | K-point:      16 at    0.750000    0.750000    0.000000 (in units of recip. lattice)

  ESTIMATED overall HOMO-LUMO gap:      2.24240515 eV between HOMO at k-point 6 and LUMO at k-point 16
  | This appears to be an indirect band gap.
  | Smallest direct gap :      2.24240894 eV for k_point 16 at    0.750000    0.750000    0.000000 (in units of recip. lattice)
  The gap value is above 0.2 eV. Unless you are using a very sparse k-point grid,
  this system is most likely an insulator or a semiconductor.
  | Potential vacuum level, "upper" slab surface:     0.03847555 eV
  | Potential vacuum level, "lower" slab surface:    -0.12322451 eV
  | Work function ("upper" slab surface)        :     5.25651491 eV
  | Work function ("lower" slab surface)        :     5.09481485 eV
  *** Warning: band gap may exist, check the suitability to define work function using chemical potential.
  | VBM (reference: upper vacuum level)         :     6.16173850 eV
  | CBM (reference: upper vacuum level)         :     3.91933335 eV

  Spin-orbit coupling                                     :  max(cpu_time)    wall_clock(cpu1)
  | Computing matrix elements for SOC operator            :          6.826               6.835
  | Constructing second-variational Hamiltonian           :          3.187               3.187
  | Diagonalizing second-variational Hamiltonian          :          3.575               3.575
  | Syncing data and calculating occupations              :          0.275               0.167
  | Writing out data, calculating band gaps, etc.         :          0.019               0.019
  | Total SOC time                                        :         13.790              13.791

  Partial memory accounting:
  | Current value for overall tracked memory usage:
  |   Minimum:      487.821 MB (on task 109)
  |   Maximum:     1354.110 MB (on task 246)
  |   Average:      769.982 MB
  | Peak value for overall tracked memory usage:
  |   Minimum:      613.078 MB (on task 109 after allocating potential_shell)
  |   Maximum:     1478.865 MB (on task 256 after allocating potential_shell)
  |   Average:      894.612 MB
  | Largest tracked array allocation so far:
  |   Minimum:      131.973 MB (ovlp3fn for atom on task   0)
  |   Maximum:      311.605 MB (ovlp3fn for atom on task 246)
  |   Average:      172.249 MB
  Note:  These values currently only include a subset of arrays which are explicitly tracked.
  The "true" memory usage will be greater.
 ------------------------------------------------------------
 Work function related results without post-SCF corrections:
 ------------------------------------------------------------
  | Chemical Potential                          :    -5.39020699 eV
  Writing energy levels:
  | Potential vacuum level, "upper" slab surface:     0.03847555 eV
  | Potential vacuum level, "lower" slab surface:    -0.12322451 eV
  Spin-up energy levels:
  | Work function-spin ("upper" slab surface)   :     5.42868254 eV
  | Work function-spin ("lower" slab surface)   :     5.26698247 eV
  *** Warning: band gap may exist, check the suitability to define work function using chemical potential.
  | VBM-spin (reference: upper vacuum level)    :     6.35897655 eV
  | CBM-spin (reference: upper vacuum level)    :     3.87601675 eV
  Spin-down energy levels:
  | Work function-spin ("upper" slab surface)   :     5.42868254 eV
  | Work function-spin ("lower" slab surface)   :     5.26698247 eV
  *** Warning: band gap may exist, check the suitability to define work function using chemical potential.
  | VBM-spin (reference: upper vacuum level)    :     6.35897949 eV
  | CBM-spin (reference: upper vacuum level)    :     3.87599885 eV
 ------------------------------------------------------------
 Work function related results including post-SCF second variational SOC corrections:
 ------------------------------------------------------------
  | Chemical Potential                          :    -5.21803936 eV
  Writing energy levels:
  | Potential vacuum level, "upper" slab surface:     0.03847555 eV
  | Potential vacuum level, "lower" slab surface:    -0.12322451 eV
  | Work function ("upper" slab surface)        :     5.25651491 eV
  | Work function ("lower" slab surface)        :     5.09481485 eV
  *** Warning: band gap may exist, check the suitability to define work function using chemical potential.
  | VBM (reference: upper vacuum level)         :     6.16173850 eV
  | CBM (reference: upper vacuum level)         :     3.91933335 eV
 ------------------------------------------------------------

------------------------------------------------------------------------------
  Final output of selected total energy values:

  The following output summarizes some interesting total energy values
  at the end of a run (AFTER all relaxation, molecular dynamics, etc.).

  | Total energy of the DFT / Hartree-Fock s.c.f. calculation      :      -11872219.549747590 eV
  | Final zero-broadening corrected energy (caution - metals only) :      -11872219.549747590 eV
  | Total energy after non-SC SOC correction (DO NOT USE)          :      -11872249.211515484 eV
  | For reference only, the value of 1 Hartree used in FHI-aims is :             27.211384500 eV
  | For reference only, the overall average (free atom contribution
  | + realspace contribution) of the electrostatic potential after
  | s.c.f. convergence is                                          :             -1.223945278 eV

  Before relying on these values, please be sure to understand exactly which
  total energy value is referred to by a given number. Different objects may
  all carry the same name 'total energy'. Definitions:

  Total energy of the DFT / Hartree-Fock s.c.f. calculation:
  | Note that this energy does not include ANY quantities calculated after the
  | s.c.f. cycle, in particular not ANY RPA, MP2, etc. many-body perturbation terms.

  Final zero-broadening corrected energy:
  | For metallic systems only, a broadening of the occupation numbers at the Fermi
  | level can be extrapolated back to zero broadening by an electron-gas inspired
  | formula. For all systems that are not real metals, this value can be
  | meaningless and should be avoided.

------------------------------------------------------------------------------
  Methods described in the following list of references were used in this FHI-aims run.
  If you publish the results, please make sure to cite these reference if they apply.
  FHI-aims is an academic code, and for our developers (often, Ph.D. students
  and postdocs), scientific credit in the community is essential.
  Thank you for helping us!

  For any use of FHI-aims, please cite:

    Volker Blum, Ralf Gehrke, Felix Hanke, Paula Havu, Ville Havu,
    Xinguo Ren, Karsten Reuter, and Matthias Scheffler
    'Ab initio molecular simulations with numeric atom-centered orbitals'
    Computer Physics Communications 180, 2175-2196 (2009)
    http://doi.org/10.1016/j.cpc.2009.06.022


  For Hartree-Fock, hybrid functionals, or many-body perturbation theory used in your run, please cite:

    Xinguo Ren, Patrick Rinke, Volker Blum, Juergen Wieferink, Alex Tkatchenko,
    Andrea Sanfilippo, Karsten Reuter, and Matthias Scheffler,
    'Resolution-of-identity approach to Hartree-Fock, hybrid density functionals,
    RPA, MP2, and GW with numeric atom-centered orbital basis functions'
    New Journal of Physics 14, 053020 (2012).
    http://doi.org/10.1088/1367-2630/14/5/053020


  The provided symmetry information was generated with SPGlib:

    Atsushi Togo, Yusuke Seto, Dimitar Pashov
    SPGlib 1.7.3 obtained from http://spglib.sourceforge.net
    Copyright (C) 2008 Atsushi Togo


  For second-variational spin-orbit coupling used in your run, please cite:

    William P. Huhn and Volker Blum,
    'One-hundred-three compound band-structure benchmark of post-self-consistent'
    'spin-orbit coupling treatments in density functional theory'
    Phys. Rev. Materials 1, 033803 (2017).


  The ELSI infrastructure was used in your run to solve the Kohn-Sham electronic structure.
  Please check out http://elsi-interchange.org to learn more.
  If scalability is important for your project, please acknowledge ELSI by citing:

    V. W-z. Yu, F. Corsetti, A. Garcia, W. P. Huhn, M. Jacquelin, W. Jia,
    B. Lange, L. Lin, J. Lu, W. Mi, A. Seifitokaldani, A. Vazquez-Mayagoitia,
    C. Yang, H. Yang, and V. Blum
    'ELSI: A unified software interface for Kohn-Sham electronic structure solvers'
    Computer Physics Communications 222, 267-285 (2018).
    http://doi.org/10.1016/j.cpc.2017.09.007


  For the real-space grid partitioning and parallelization used in this calculation, please cite:

    Ville Havu, Volker Blum, Paula Havu, and Matthias Scheffler,
    'Efficient O(N) integration for all-electron electronic structure calculation'
    'using numerically tabulated basis functions'
    Journal of Computational Physics 228, 8367-8379 (2009).
    http://doi.org/10.1016/j.jcp.2009.08.008


  The high-level electronic structure method used in your calculation
  employed our efficient localized resolution of identity for the Coulomb operator.
  Some calculations, especially large-scale hybrid density functional theory,
  are only possible thanks to this development. For this feature, please cite:

    Arvid Ihrig, Juergen Wieferink, Igor Ying Zhang, Matti Ropo, Xinguo Ren,
    Patrick Rinke, Matthias Scheffler, and Volker Blum,
    'Accurate localized resolution of identity approach for linear-scaling
    hybrid density functionals and for many-body perturbation theory'
    New Journal of Physics 117, 093020 (2015).
    http://doi.org/10.1088/1367-2630/17/9/093020

  Of course, there are many other important community references, e.g., those cited in the
  above references. Our list is limited to references that describe implementations in the
  FHI-aims code. The reason is purely practical (length of this list) - please credit others as well.

------------------------------------------------------------
          Leaving FHI-aims.
          Date     :  20220921, Time     :  073857.553

          Computational steps:
          | Number of self-consistency cycles          :           23
          | Number of SCF (re)initializations          :            1
          | Number of relaxation steps                 :            0

          Detailed time accounting                     :  max(cpu_time)    wall_clock(cpu1)
          | Total time                                  :     3869.158 s        3869.260 s
          | Preparation time                            :        1.468 s           1.469 s
          | Boundary condition initalization            :        0.837 s           0.838 s
          | Grid partitioning                           :        2.303 s           2.303 s
          | Preloading free-atom quantities on grid     :        1.338 s           1.341 s
          | Free-atom superposition energy              :        0.048 s           0.048 s
          | Total time for integrations                 :       38.811 s          38.813 s
          | Product basis setup: Total time             :      480.271 s         480.279 s
          | Total time evaluating exchange matrix       :     3084.091 s        3083.508 s
          | Total time for solution of K.-S. equations  :      101.678 s         101.678 s
          | Total time for EV reorthonormalization      :        0.000 s           0.000 s
          | Total time for density & force components   :      107.509 s         107.512 s
          | Total time for mixing                       :        0.168 s           0.164 s
          | Total time for Hartree multipole update     :        0.304 s           0.305 s
          | Total time for Hartree multipole sum        :       28.849 s          28.851 s
          | Total time for total energy evaluation      :        0.057 s           0.060 s
          | Total time NSC force correction             :        1.777 s           1.777 s
          | Total time for scaled ZORA corrections      :        0.000 s           0.000 s
          | Total time for vdW correction               :        5.644 s           5.647 s
          | Total time for perturbative SOC             :       13.790 s          13.791 s

          Partial memory accounting:
          | Residual value for overall tracked memory usage across tasks:     0.000000 MB (should be 0.000000 MB)
          | Peak values for overall tracked memory usage:
          |   Minimum:      613.078 MB (on task 109 after allocating potential_shell)
          |   Maximum:     1478.865 MB (on task 256 after allocating potential_shell)
          |   Average:      894.612 MB
          | Largest tracked array allocation:
          |   Minimum:      131.973 MB (ovlp3fn for atom on task   0)
          |   Maximum:      311.605 MB (ovlp3fn for atom on task 246)
          |   Average:      172.249 MB
          Note:  These values currently only include a subset of arrays which are explicitly tracked.
          The "true" memory usage will be greater.

          Have a nice day.
------------------------------------------------------------
