------------------------------------------------------------
          Invoking FHI-aims ...

          When using FHI-aims, please cite the following reference:

            Volker Blum, Ralf Gehrke, Felix Hanke, Paula Havu,
            Ville Havu, Xinguo Ren, Karsten Reuter, and Matthias Scheffler,
            'Ab Initio Molecular Simulations with Numeric Atom-Centered Orbitals',
            Computer Physics Communications 180, 2175-2196 (2009)

          In addition, many other developments in FHI-aims are likely important for
          your particular application. A partial list of references is given at the end of
          this file. Thank you for giving credit to the authors of these developments.

          For any questions about FHI-aims, please visit our slack channel at

            https://fhi-aims.slack.com

          and our main development and support site at

            https://aims-git.rz-berlin.mpg.de .

          The latter site, in particular, has a wiki to collect information, as well
          as an issue tracker to log discussions, suggest improvements, and report issues
          or bugs. https://aims-git.rz-berlin.mpg.de is also the main development site
          of the project and all new and updated code versions can be obtained there.
          Please send an email to aims-coordinators@fhi-berlin.mpg.de and we will add
          you to these sites. They are for you and everyone is welcome there.

------------------------------------------------------------



  Date     :  20220930, Time     :  144504.709
  Time zero on CPU 1             :   0.344117000000000E+00  s.
  Internal wall clock time zero  :           433781104.709  s.

  FHI-aims created a unique identifier for this run for later identification
  aims_uuid : 901DA868-D754-4714-A1AE-FDDA15BF8FAF

  Build configuration of the current instance of FHI-aims
  -------------------------------------------------------
  FHI-aims version      : 220117
  Commit number         : 0c0e6afe2
  CMake host system     : Linux-5.3.18-24.99-default
  CMake version         : 3.22.0
  Fortran compiler      : /mpcdf/soft/SLE_15/packages/x86_64/intel_oneapi/2021.4/mpi/2021.4.0/bin/mpiifort (Intel) version 2021.4.0.20210910
  Fortran compiler flags: -O3 -ip -fp-model precise
  C compiler            : /mpcdf/soft/SLE_15/packages/x86_64/intel/2021.4.0/bin/icc (Intel) version 2021.4.0.20210910
  C compiler flags      : -O3 -ip -fp-model precise
  C++ compiler          : /mpcdf/soft/SLE_15/packages/x86_64/intel/2021.4.0/bin/icpc (Intel) version 2021.4.0.20210910
  C++ compiler flags    : -O3 -ip -fp-model precise
  Using MPI
  Using ScaLAPACK
  Using LibXC
  Using i-PI
  Using RLSY
  Linking against: /mpcdf/soft/SLE_15/packages/x86_64/intel_oneapi/2021.4/mkl/latest/lib/intel64/libmkl_intel_lp64.so
                   /mpcdf/soft/SLE_15/packages/x86_64/intel_oneapi/2021.4/mkl/latest/lib/intel64/libmkl_sequential.so
                   /mpcdf/soft/SLE_15/packages/x86_64/intel_oneapi/2021.4/mkl/latest/lib/intel64/libmkl_core.so
                   /mpcdf/soft/SLE_15/packages/x86_64/intel_oneapi/2021.4/mkl/latest/lib/intel64/libmkl_blacs_intelmpi_lp64.so
                   /mpcdf/soft/SLE_15/packages/x86_64/intel_oneapi/2021.4/mkl/latest/lib/intel64/libmkl_scalapack_lp64.so

  Using      288 parallel tasks.
  Task        0 on host ravg1098 reporting.
  Task        1 on host ravg1098 reporting.
  Task        2 on host ravg1098 reporting.
  Task        3 on host ravg1098 reporting.
  Task        4 on host ravg1098 reporting.
  Task        5 on host ravg1098 reporting.
  Task        6 on host ravg1098 reporting.
  Task        7 on host ravg1098 reporting.
  Task        8 on host ravg1098 reporting.
  Task        9 on host ravg1098 reporting.
  Task       10 on host ravg1098 reporting.
  Task       11 on host ravg1098 reporting.
  Task       12 on host ravg1098 reporting.
  Task       13 on host ravg1098 reporting.
  Task       14 on host ravg1098 reporting.
  Task       15 on host ravg1098 reporting.
  Task       16 on host ravg1098 reporting.
  Task       17 on host ravg1098 reporting.
  Task       18 on host ravg1098 reporting.
  Task       19 on host ravg1098 reporting.
  Task       20 on host ravg1098 reporting.
  Task       21 on host ravg1098 reporting.
  Task       22 on host ravg1098 reporting.
  Task       23 on host ravg1098 reporting.
  Task       24 on host ravg1098 reporting.
  Task       25 on host ravg1098 reporting.
  Task       26 on host ravg1098 reporting.
  Task       27 on host ravg1098 reporting.
  Task       28 on host ravg1098 reporting.
  Task       29 on host ravg1098 reporting.
  Task       30 on host ravg1098 reporting.
  Task       31 on host ravg1098 reporting.
  Task       32 on host ravg1098 reporting.
  Task       33 on host ravg1098 reporting.
  Task       34 on host ravg1098 reporting.
  Task       35 on host ravg1098 reporting.
  Task       36 on host ravg1098 reporting.
  Task       37 on host ravg1098 reporting.
  Task       38 on host ravg1098 reporting.
  Task       39 on host ravg1098 reporting.
  Task       40 on host ravg1098 reporting.
  Task       41 on host ravg1098 reporting.
  Task       42 on host ravg1098 reporting.
  Task       43 on host ravg1098 reporting.
  Task       44 on host ravg1098 reporting.
  Task       45 on host ravg1098 reporting.
  Task       46 on host ravg1098 reporting.
  Task       47 on host ravg1098 reporting.
  Task       48 on host ravg1098 reporting.
  Task       49 on host ravg1098 reporting.
  Task       50 on host ravg1098 reporting.
  Task       51 on host ravg1098 reporting.
  Task       52 on host ravg1098 reporting.
  Task       53 on host ravg1098 reporting.
  Task       54 on host ravg1098 reporting.
  Task       55 on host ravg1098 reporting.
  Task       56 on host ravg1098 reporting.
  Task       57 on host ravg1098 reporting.
  Task       58 on host ravg1098 reporting.
  Task       59 on host ravg1098 reporting.
  Task       60 on host ravg1098 reporting.
  Task       61 on host ravg1098 reporting.
  Task       62 on host ravg1098 reporting.
  Task       63 on host ravg1098 reporting.
  Task       64 on host ravg1098 reporting.
  Task       65 on host ravg1098 reporting.
  Task       66 on host ravg1098 reporting.
  Task       67 on host ravg1098 reporting.
  Task       68 on host ravg1098 reporting.
  Task       69 on host ravg1098 reporting.
  Task       70 on host ravg1098 reporting.
  Task       71 on host ravg1098 reporting.
  Task       72 on host ravg1100 reporting.
  Task       73 on host ravg1100 reporting.
  Task       74 on host ravg1100 reporting.
  Task       75 on host ravg1100 reporting.
  Task       76 on host ravg1100 reporting.
  Task       77 on host ravg1100 reporting.
  Task       78 on host ravg1100 reporting.
  Task       79 on host ravg1100 reporting.
  Task       80 on host ravg1100 reporting.
  Task       81 on host ravg1100 reporting.
  Task       82 on host ravg1100 reporting.
  Task       83 on host ravg1100 reporting.
  Task       84 on host ravg1100 reporting.
  Task       85 on host ravg1100 reporting.
  Task       86 on host ravg1100 reporting.
  Task       87 on host ravg1100 reporting.
  Task       88 on host ravg1100 reporting.
  Task       89 on host ravg1100 reporting.
  Task       90 on host ravg1100 reporting.
  Task       91 on host ravg1100 reporting.
  Task       92 on host ravg1100 reporting.
  Task       93 on host ravg1100 reporting.
  Task       94 on host ravg1100 reporting.
  Task       95 on host ravg1100 reporting.
  Task       96 on host ravg1100 reporting.
  Task       97 on host ravg1100 reporting.
  Task       98 on host ravg1100 reporting.
  Task       99 on host ravg1100 reporting.
  Task      100 on host ravg1100 reporting.
  Task      101 on host ravg1100 reporting.
  Task      102 on host ravg1100 reporting.
  Task      103 on host ravg1100 reporting.
  Task      104 on host ravg1100 reporting.
  Task      105 on host ravg1100 reporting.
  Task      106 on host ravg1100 reporting.
  Task      107 on host ravg1100 reporting.
  Task      108 on host ravg1100 reporting.
  Task      109 on host ravg1100 reporting.
  Task      110 on host ravg1100 reporting.
  Task      111 on host ravg1100 reporting.
  Task      112 on host ravg1100 reporting.
  Task      113 on host ravg1100 reporting.
  Task      114 on host ravg1100 reporting.
  Task      115 on host ravg1100 reporting.
  Task      116 on host ravg1100 reporting.
  Task      117 on host ravg1100 reporting.
  Task      118 on host ravg1100 reporting.
  Task      119 on host ravg1100 reporting.
  Task      120 on host ravg1100 reporting.
  Task      121 on host ravg1100 reporting.
  Task      122 on host ravg1100 reporting.
  Task      123 on host ravg1100 reporting.
  Task      124 on host ravg1100 reporting.
  Task      125 on host ravg1100 reporting.
  Task      126 on host ravg1100 reporting.
  Task      127 on host ravg1100 reporting.
  Task      128 on host ravg1100 reporting.
  Task      129 on host ravg1100 reporting.
  Task      130 on host ravg1100 reporting.
  Task      131 on host ravg1100 reporting.
  Task      132 on host ravg1100 reporting.
  Task      133 on host ravg1100 reporting.
  Task      134 on host ravg1100 reporting.
  Task      135 on host ravg1100 reporting.
  Task      136 on host ravg1100 reporting.
  Task      137 on host ravg1100 reporting.
  Task      138 on host ravg1100 reporting.
  Task      139 on host ravg1100 reporting.
  Task      140 on host ravg1100 reporting.
  Task      141 on host ravg1100 reporting.
  Task      142 on host ravg1100 reporting.
  Task      143 on host ravg1100 reporting.
  Task      144 on host ravg1106 reporting.
  Task      145 on host ravg1106 reporting.
  Task      146 on host ravg1106 reporting.
  Task      147 on host ravg1106 reporting.
  Task      148 on host ravg1106 reporting.
  Task      149 on host ravg1106 reporting.
  Task      150 on host ravg1106 reporting.
  Task      151 on host ravg1106 reporting.
  Task      152 on host ravg1106 reporting.
  Task      153 on host ravg1106 reporting.
  Task      154 on host ravg1106 reporting.
  Task      155 on host ravg1106 reporting.
  Task      156 on host ravg1106 reporting.
  Task      157 on host ravg1106 reporting.
  Task      158 on host ravg1106 reporting.
  Task      159 on host ravg1106 reporting.
  Task      160 on host ravg1106 reporting.
  Task      161 on host ravg1106 reporting.
  Task      162 on host ravg1106 reporting.
  Task      163 on host ravg1106 reporting.
  Task      164 on host ravg1106 reporting.
  Task      165 on host ravg1106 reporting.
  Task      166 on host ravg1106 reporting.
  Task      167 on host ravg1106 reporting.
  Task      168 on host ravg1106 reporting.
  Task      169 on host ravg1106 reporting.
  Task      170 on host ravg1106 reporting.
  Task      171 on host ravg1106 reporting.
  Task      172 on host ravg1106 reporting.
  Task      173 on host ravg1106 reporting.
  Task      174 on host ravg1106 reporting.
  Task      175 on host ravg1106 reporting.
  Task      176 on host ravg1106 reporting.
  Task      177 on host ravg1106 reporting.
  Task      178 on host ravg1106 reporting.
  Task      179 on host ravg1106 reporting.
  Task      180 on host ravg1106 reporting.
  Task      181 on host ravg1106 reporting.
  Task      182 on host ravg1106 reporting.
  Task      183 on host ravg1106 reporting.
  Task      184 on host ravg1106 reporting.
  Task      185 on host ravg1106 reporting.
  Task      186 on host ravg1106 reporting.
  Task      187 on host ravg1106 reporting.
  Task      188 on host ravg1106 reporting.
  Task      189 on host ravg1106 reporting.
  Task      190 on host ravg1106 reporting.
  Task      191 on host ravg1106 reporting.
  Task      192 on host ravg1106 reporting.
  Task      193 on host ravg1106 reporting.
  Task      194 on host ravg1106 reporting.
  Task      195 on host ravg1106 reporting.
  Task      196 on host ravg1106 reporting.
  Task      197 on host ravg1106 reporting.
  Task      198 on host ravg1106 reporting.
  Task      199 on host ravg1106 reporting.
  Task      200 on host ravg1106 reporting.
  Task      201 on host ravg1106 reporting.
  Task      202 on host ravg1106 reporting.
  Task      203 on host ravg1106 reporting.
  Task      204 on host ravg1106 reporting.
  Task      205 on host ravg1106 reporting.
  Task      206 on host ravg1106 reporting.
  Task      207 on host ravg1106 reporting.
  Task      208 on host ravg1106 reporting.
  Task      209 on host ravg1106 reporting.
  Task      210 on host ravg1106 reporting.
  Task      211 on host ravg1106 reporting.
  Task      212 on host ravg1106 reporting.
  Task      213 on host ravg1106 reporting.
  Task      214 on host ravg1106 reporting.
  Task      215 on host ravg1106 reporting.
  Task      216 on host ravg1139 reporting.
  Task      217 on host ravg1139 reporting.
  Task      218 on host ravg1139 reporting.
  Task      219 on host ravg1139 reporting.
  Task      220 on host ravg1139 reporting.
  Task      221 on host ravg1139 reporting.
  Task      222 on host ravg1139 reporting.
  Task      223 on host ravg1139 reporting.
  Task      224 on host ravg1139 reporting.
  Task      225 on host ravg1139 reporting.
  Task      226 on host ravg1139 reporting.
  Task      227 on host ravg1139 reporting.
  Task      228 on host ravg1139 reporting.
  Task      229 on host ravg1139 reporting.
  Task      230 on host ravg1139 reporting.
  Task      231 on host ravg1139 reporting.
  Task      232 on host ravg1139 reporting.
  Task      233 on host ravg1139 reporting.
  Task      234 on host ravg1139 reporting.
  Task      235 on host ravg1139 reporting.
  Task      236 on host ravg1139 reporting.
  Task      237 on host ravg1139 reporting.
  Task      238 on host ravg1139 reporting.
  Task      239 on host ravg1139 reporting.
  Task      240 on host ravg1139 reporting.
  Task      241 on host ravg1139 reporting.
  Task      242 on host ravg1139 reporting.
  Task      243 on host ravg1139 reporting.
  Task      244 on host ravg1139 reporting.
  Task      245 on host ravg1139 reporting.
  Task      246 on host ravg1139 reporting.
  Task      247 on host ravg1139 reporting.
  Task      248 on host ravg1139 reporting.
  Task      249 on host ravg1139 reporting.
  Task      250 on host ravg1139 reporting.
  Task      251 on host ravg1139 reporting.
  Task      252 on host ravg1139 reporting.
  Task      253 on host ravg1139 reporting.
  Task      254 on host ravg1139 reporting.
  Task      255 on host ravg1139 reporting.
  Task      256 on host ravg1139 reporting.
  Task      257 on host ravg1139 reporting.
  Task      258 on host ravg1139 reporting.
  Task      259 on host ravg1139 reporting.
  Task      260 on host ravg1139 reporting.
  Task      261 on host ravg1139 reporting.
  Task      262 on host ravg1139 reporting.
  Task      263 on host ravg1139 reporting.
  Task      264 on host ravg1139 reporting.
  Task      265 on host ravg1139 reporting.
  Task      266 on host ravg1139 reporting.
  Task      267 on host ravg1139 reporting.
  Task      268 on host ravg1139 reporting.
  Task      269 on host ravg1139 reporting.
  Task      270 on host ravg1139 reporting.
  Task      271 on host ravg1139 reporting.
  Task      272 on host ravg1139 reporting.
  Task      273 on host ravg1139 reporting.
  Task      274 on host ravg1139 reporting.
  Task      275 on host ravg1139 reporting.
  Task      276 on host ravg1139 reporting.
  Task      277 on host ravg1139 reporting.
  Task      278 on host ravg1139 reporting.
  Task      279 on host ravg1139 reporting.
  Task      280 on host ravg1139 reporting.
  Task      281 on host ravg1139 reporting.
  Task      282 on host ravg1139 reporting.
  Task      283 on host ravg1139 reporting.
  Task      284 on host ravg1139 reporting.
  Task      285 on host ravg1139 reporting.
  Task      286 on host ravg1139 reporting.
  Task      287 on host ravg1139 reporting.

  Performing system and environment tests:
  | Environment variable OMP_NUM_THREADS correctly set to 1.
  | Checking for ScaLAPACK...
  | Testing pdtran()...
  | All pdtran() tests passed.

  Obtaining array dimensions for all initial allocations:
  
  -----------------------------------------------------------------------
  Parsing control.in (first pass over file, find array dimensions only).
  The contents of control.in will be repeated verbatim below
  unless switched off by setting 'verbatim_writeout .false.' .
  in the first line of control.in .
  -----------------------------------------------------------------------
  
  xc                 hse06  0.11
  hse_unit b
  spin               collinear
  default_initial_moment 1
  charge      0.0
  relativistic       atomic_zora scalar
  #elsi_restart read
  # SCF settings
  #relax_geometry bfgs 1E-3
  #relax_unit_cell fixed_angles
  use_symmetric_forces .true.
  occupation_type gaussian       0.1
  # k-grid settings  (to be adjusted)
  k_grid  4 4 1
  #empty_states 8
  use_dipole_correction
  include_spin_orbit non_self_consistent
  # sc_accuracy_rho    1E-4
  #    sc_accuracy_eev    1E-3
  #    sc_accuracy_etot   1E-4
  #    sc_accuracy_forces 1E-2
  output dos_tetrahedron -10 0 2001 0.1
  output species_proj_dos_tetrahedron -10 0 2001 0.1
  
  many_body_dispersion_nl    beta=0.83
  ################################################################################
  #
  #  FHI-aims code project
  #  Volker Blum, 2018
  #
  #  Suggested "intermediate" defaults for Se atom (to be pasted into control.in file)
  #
  #  2020/09/15 These "intermediate" settings are identical to past "tight" defaults
  #             and differ only in the "g" function that is now included in "tight".
  #
  ################################################################################
    species        Se
  #     global species definitions
      nucleus             34
      mass                78.96
  #
      l_hartree           6
  #
      cut_pot             4.0          2.0  1.0
      basis_dep_cutoff    1e-4
  #
      radial_base         55 7.0
      radial_multiplier   2
      angular_grids       specified
        division   0.0830  110
        division   0.1357  194
        division   0.7377  302
        division   0.8610  434
  #      division   0.9640  590
  #      division   1.0773  770
  #      division   2.5539  974
  #      outer_grid  974
        outer_grid  434
  ################################################################################
  #
  #  Definition of "minimal" basis
  #
  ################################################################################
  #     valence basis states
      valence      4  s   2.
      valence      4  p   4.
      valence      3  d  10.
  #     ion occupancy
      ion_occ      4  s   1.
      ion_occ      4  p   3.
      ion_occ      3  d  10.
  ################################################################################
  #
  #  Suggested additional basis functions. For production calculations,
  #  uncomment them one after another (the most important basis functions are
  #  listed first).
  #
  #  Constructed for dimers: 1.85 A, 2.15 A, 2.50 A, 3.00 A, 4.00 A
  #
  ################################################################################
  #  "First tier" - improvements: -336.21 meV to -36.85 meV
       hydro 3 d 4.3
       hydro 2 p 1.6
       hydro 4 f 7.2
       ionic 4 s auto
  #  "Second tier" - improvements: -14.39 meV to -1.49 meV
  #     hydro 5 g 10.4
  #     hydro 4 p 4.5
  #     hydro 4 d 6.2
  #     hydro 4 f 11.2
  #     hydro 1 s 0.65
  #     hydro 6 h 15.2
  #  "Third tier" - improvements: -0.46 meV and below
  #     hydro 5 g 14.4
  #     ionic 4 d auto
  #     hydro 4 f 22.4
  #     hydro 5 f 7.4
  #     hydro 5 p 8
  #     hydro 5 s 9.4
  #  "Fourth tier" - improvements: -0.12 meV and below
  #     hydro 5 d 11.6
  #     hydro 6 h 18
  #     hydro 4 p 4
  #     hydro 5 f 16
  #     hydro 4 s 3.9
  
  
  ################################################################################
  #
  #  FHI-aims code project
  #  Volker Blum, 2018
  #
  #  Suggested "intermediate" defaults for S atom (to be pasted into control.in file)
  #
  ################################################################################
    species        S
  #     global species definitions
      nucleus             16
      mass                32.065
  #
      l_hartree           6
  #
      cut_pot             4.0          2.0  1.0
      basis_dep_cutoff    1e-4
  #
      radial_base         44 7.0
      radial_multiplier   2
      angular_grids       specified
        division   0.4665  110
        division   0.5810  194
        division   0.7139  302
        division   0.8274  434
  #      division   0.9105  590
  #      division   1.0975  770
  #      division   1.2028  974
  #      outer_grid  974
        outer_grid  434
  ################################################################################
  #
  #  Definition of "minimal" basis
  #
  ################################################################################
  #     valence basis states
      valence      3  s   2.
      valence      3  p   4.
  #     ion occupancy
      ion_occ      3  s   1.
      ion_occ      3  p   3.
  ################################################################################
  #
  #  Suggested additional basis functions. For production calculations,
  #  uncomment them one after another (the most important basis functions are
  #  listed first).
  #
  #  Constructed for dimers: 1.6 A, 1.9 A, 2.5 A, 3.25 A, 4.0 A
  #
  ################################################################################
  #  "First tier" - improvements: -652.81 meV to -45.53 meV
       ionic 3 d auto
       hydro 2 p 1.8
       hydro 4 f 7
       ionic 3 s auto
  #  "Second tier" - improvements: -30.20 meV to -1.74 meV
  #     hydro 4 d 6.2
  for_aux     hydro 5 g 10.8
  #     hydro 4 p 4.9
  #     hydro 5 f 10
  #     hydro 1 s 0.8
  #  "Third tier" - improvements: -1.04 meV to -0.20 meV
  #     hydro 3 d 3.9
  #     hydro 3 d 2.7
  #     hydro 5 g 12
  #     hydro 4 p 10.4
  #     hydro 5 f 12.4
  #     hydro 2 s 1.9
  #  "Fourth tier" - improvements: -0.35 meV to -0.06 meV
  #     hydro 4 d 10.4
  #     hydro 4 p 7.2
  #     hydro 4 d 10
  #     hydro 5 g 19.2
  #     hydro 4 s 12
  
  ################################################################################
  #
  #  FHI-aims code project
  # Volker Blum, Fritz Haber Institute Berlin, 2009
  #
  #  Suggested "intermediate" defaults for Mo atom (to be pasted into control.in file)
  #
  #  See https://aaltodoc.aalto.fi/handle/123456789/33620 for the report these
  #  setting are based on
  ################################################################################
    species        Mo
  #     global species definitions
      nucleus             42
      mass                95.94
  #
      l_hartree           6
  #
      cut_pot             4.0  2.0  1.0
      basis_dep_cutoff    1e-4
  #
      radial_base         59 7.0
      radial_multiplier   2
      angular_grids specified
        division   0.3117   50
        division   0.6750  110
        division   1.0351  194
        division   1.2073  302
        division   1.6402  434
  #      division   1.9185  590
  #      division   2.0237  770
  #      division   2.0980  974
  #      division   2.7972 1202
  #      outer_grid  974
        outer_grid  434
  ################################################################################
  #
  #  Definition of "minimal" basis
  #
  ################################################################################
  #     valence basis states
      valence      5  s   1.
      valence      4  p   6.
      valence      4  d   5.
  #     ion occupancy
      ion_occ     5  s   0.
      ion_occ     4  p   6.
      ion_occ     4  d   4.
  ################################################################################
  #
  #  Suggested additional basis functions. For production calculations,
  #  uncomment them one after another (the most important basis functions are
  #  listed first).
  #
  #  Constructed for dimers: 1.675 A, 1.9 A, 2.375 A, 3.00 A, 4.00 A
  #
  ################################################################################
  #  "First tier"  - max. impr. -711.23  meV, min. impr. -21.07 meV
       hydro 4 f 8.4
       hydro 3 d 2.8
       ionic 5 p auto
       for_aux hydro 5 g 12
       ionic 5 s auto
  #  "Second tier" - max. impr. -39.38  meV, min. impr. -2.68 meV
  #     hydro 4 f 12.4
  #     hydro 3 d 3.3
  #     hydro 6 h 17.2
  #     hydro 4 f 7.6
  #     hydro 3 p 3.0
  #     hydro 1 s 0.65
  #  "Third tier"  - max. impr. -5.50 meV, min. impr. -0.47 meV
  #     hydro 4 f 29.2
  #     hydro 5 g 11.2
  #     hydro 3 d 6.8
  #     hydro 6 h 14.8
  #     hydro 2 p 2.3
  #     hydro 4 s 3.8
  #  "Fourth tier"  - max. impr. -0.58 meV, min. impr. -0.19 meV
  #     hydro 5 f 6.8
  #     hydro 5 d 14.8
  #     hydro 6 s 7.8
  #     hydro 5 g 20.8
  #     hydro 5 d 10.4
  #     hydro 5 p 9.8
  #  Further functions - -0.17 meV and below
  #     hydro 5 d 3.2
  ################################################################################
  #
  #  FHI-aims code project
  #  Volker Blum, Maria Dragoumi, Sebastian Kokott 2020
  #
  #  Suggested "intermediate" defaults for W atom (to be pasted into control.in file)
  #
  ################################################################################
    species          W
  #     global species definitions
      nucleus        74
      mass           183.84
  #
      l_hartree      6
  #
      cut_pot        4.0  2.0  1.0
      basis_dep_cutoff    1e-4
  #
      radial_base    71  7.0
      radial_multiplier  2
      angular_grids specified
        division   0.2901   50
        division   0.6986  110
        division   1.0528  194
        division   1.2659  302
        division   1.5223  434
  #      division   1.8111  590
  #      division   2.0105  770
  #      division   2.0413  974
  #      division   2.8804 1202
  #      outer_grid  974
        outer_grid  434
  ################################################################################
  #
  #  Definition of "minimal" basis
  #
  ################################################################################
  #     valence basis states
      valence      6  s   2.
      valence      5  p   6.
      valence      5  d   4.
      valence      4  f  14.
  #     ion occupancy
      ion_occ      6  s   1.
      ion_occ      5  p   6.
      ion_occ      5  d   3.
      ion_occ      4  f  14.
  ################################################################################
  #
  #  Suggested additional basis functions. For production calculations,
  #  uncomment them one after another (the most important basis functions are
  #  listed first).
  #
  #  Constructed for dimers: 1.775, 1.99, 2.50, 3.25, 4.50 AA
  #
  ################################################################################
  #
  #  "First tier" - improvements: -603.77 meV to -28.99 meV
       hydro 4 f 7.8
       hydro 4 d 5.8
       ionic 6 p auto
    for_aux   hydro 5 g 12.4
       ionic 6 s auto
  #  "Second tier" - improvements: -28.30 meV to -1.31 meV
  #     hydro 6 h 16.8
  #     ionic 5 d auto
  #     hydro 4 f 8.6
  #     hydro 5 g 16.8
  #     hydro 5 d 8.4
  #     hydro 3 p 3.3
  #     hydro 1 s 0.55
  #  "Third tier" - max. impr. -1.79 meV, min. impr. -0.26 meV
  #     hydro 5 f 10.8
  #     hydro 5 g 34.4
  #     hydro 6 h 20.8
  #     hydro 5 g 12.8
  #     hydro 2 p 1.6
  #     hydro 4 s 4.7
  #     hydro 6 d 18.4
  #  "Fourth tier" -0.46 max. impr. - meV, min. impr. -0.09 meV
  #     hydro 6 h 21.6
  #     hydro 5 f 22.4
  #     hydro 4 f 4
  #     hydro 5 p 9.6
  #     hydro 6 d 17.2
  #     hydro 3 p 5.2
  #     hydro 5 g 4.7
  #     hydro 6 s 7.6
  
  -----------------------------------------------------------------------
  Completed first pass over input file control.in .
  -----------------------------------------------------------------------
  
  
  -----------------------------------------------------------------------
  Parsing geometry.in (first pass over file, find array dimensions only).
  The contents of geometry.in will be repeated verbatim below
  unless switched off by setting 'verbatim_writeout .false.' .
  in the first line of geometry.in .
  -----------------------------------------------------------------------
  
  #
  # This is the geometry file that corresponds to the current relaxation step.
  # If you do not want this file to be written, set the "write_restart_geometry" flag to .false.
  #  aims_uuid : 09CEC41C-DE99-4520-AF29-C94886349AC4
  #
    set_vacuum_level       103.288256
  lattice_vector     16.31232095      0.00000000      0.00000000
  lattice_vector     -8.15665875     14.12581815      0.00000000
  lattice_vector      0.00000000      0.00000000    103.32585319
  atom       0.00692823      0.94480960     51.62759380 Mo
  atom       1.64611302      1.89105935     53.29036949 Se
  atom       1.64609000      1.89103541     49.96476548 Se
  atom      -1.63135676      3.76802710     51.62757427 Mo
  atom       0.03008677      4.69927351     53.28392477 Se
  atom       0.03005655      4.69928602     49.97120833 Se
  atom      -3.28062901      6.58274528     51.62759184 Mo
  atom      -1.63146143      7.52409369     53.28196605 Se
  atom      -1.63147654      7.52411408     49.97317985 Se
  atom      -4.91022819      9.40488405     51.62759355 Mo
  atom      -3.27031160     10.36228130     53.28196669 Se
  atom      -3.27033788     10.36225277     49.97319235 Se
  atom      -6.52355747     12.24037734     51.62758062 Mo
  atom      -4.88624583     13.21342940     53.28393537 Se
  atom      -4.88626252     13.21341091     49.97122935 Se
  atom       3.28394321      0.98950506     51.62756657 Mo
  atom       4.94927952      2.01435830     53.27870746 Se
  atom       4.94927154      2.01437164     49.97641771 Se
  atom       1.68412026      3.76015473     51.62756762 Mo
  atom       3.40443489      4.68978965     53.27866650 Se
  atom       3.40444076      4.68977548     49.97645396 Se
  atom       0.01771085      6.58275802     51.62758755 Mo
  atom       1.66101274      7.51546145     53.28428257 Se
  atom       1.66101920      7.51550427     49.97084795 Se
  atom      -1.63156840      9.41621547     51.62756848 Mo
  atom       0.00717187     10.36226944     53.28195882 Se
  atom       0.00719154     10.36225442     49.97318754 Se
  atom      -3.26114975     12.26107734     51.62757280 Mo
  atom      -1.63167601     13.21766766     53.28431517 Se
  atom      -1.63166851     13.21765807     49.97083756 Se
  atom       6.52487431      0.99960424     51.62756276 Mo
  atom       8.10048385      2.01432831     53.27869438 Se
  atom       8.10050738      2.01435991     49.97645322 Se
  atom       5.12561672      3.89982664     51.62756605 Mo
  atom       3.31338192      6.56160147     51.62757832 Mo
  atom       4.98000828      7.41866164     53.27869879 Se
  atom       4.98003582      7.41868988     49.97646463 Se
  atom       1.64711178      9.40488519     51.62760532 Mo
  atom       3.28448351     10.33596844     53.28393163 Se
  atom       3.28452288     10.33599582     49.97124326 Se
  atom      -0.00217231     12.26104695     51.62758304 Mo
  atom       1.62288894     13.21340680     53.28394450 Se
  atom       1.62294351     13.21343121     49.97123785 Se
  atom       9.76587042      0.98948160     51.62756426 Mo
  atom      11.40368019      1.89106190     53.29038965 Se
  atom      11.40368067      1.89103649     49.96479454 Se
  atom       7.92400164      3.89983948     51.62758673 Mo
  atom       9.64513187      4.68979899     53.27868747 Se
  atom       9.64514144      4.68978662     49.97648095 Se
  atom       6.52472473      6.32306192     51.62756783 Mo
  atom       8.06935594      7.41863197     53.27872683 Se
  atom       8.06936227      7.41866705     49.97646368 Se
  atom       4.92492846      9.37325635     51.62758190 Mo
  atom       6.52459372     10.34086867     53.29041281 Se
  atom       6.52458515     10.34087293     49.96479561 Se
  atom       3.26023272     12.24037273     51.62759265 Mo
  atom       4.89065050     13.18165779     53.28779195 Se
  atom       4.89064945     13.18165205     49.96738866 Se
  atom      13.04290100      0.94480415     51.62758489 Mo
  atom      14.68105612      1.88549375     53.28780684 Se
  atom      14.68104266      1.88548720     49.96737173 Se
  atom      11.36552507      3.76014866     51.62758305 Mo
  atom      13.01950853      4.69926866     53.28393065 Se
  atom      13.01950745      4.69929314     49.97121857 Se
  atom       9.73602358      6.56162849     51.62757480 Mo
  atom      11.38837790      7.51547314     53.28430570 Se
  atom      11.38836712      7.51551201     49.97085363 Se
  atom       8.12427622      9.37327621     51.62760145 Mo
  atom       9.76467433     10.33597776     53.28392908 Se
  atom       9.76467777     10.33596994     49.97123931 Se
  atom       6.52452447     12.23348034     51.62760604 Mo
  atom       8.15834492     13.18166714     53.28780079 Se
  atom       8.15833472     13.18163334     49.96737509 Se
  #
  # What follows is the current estimated Hessian matrix constructed by the BFGS algorithm.
  # This is NOT the true Hessian matrix of the system.
  # If you do not want this information here, switch it off using the "hessian_to_restart_geometry" keyword.
  #
  
  -----------------------------------------------------------------------
  Completed first pass over input file geometry.in .
  -----------------------------------------------------------------------
  

  Basic array size parameters:
  | Number of species                 :        4
  | Number of atoms                   :       73
  | Number of lattice vectors         :        3
  | Max. basis fn. angular momentum   :        4
  | Max. atomic/ionic basis occupied n:        6
  | Max. number of basis fn. types    :        3
  | Max. radial fns per species/type  :       14
  | Max. logarithmic grid size        :     1483
  | Max. radial integration grid size :      143
  | Max. angular integration grid size:      434
  | Max. angular grid division number :        8
  | Radial grid for Hartree potential :     1483
  | Number of spin channels           :        2

------------------------------------------------------------
          Reading file control.in.
------------------------------------------------------------

  XC: Using HSE-functional with OMEGA =  0.110000E+00 <units>.
  XC: For the actual units (bohr^-1 or Angstrom^-1), see below.
  hse_unit: Unit for the HSE06 hybrid functional screening parameter set to bohr^(-1).
  Spin treatment: Spin density functional theory - collinear spins.
  Initial spin moment per atom:   1.0000
  Charge =   0.000000E+00: Neutral system requested explicitly.
  Scalar relativistic treatment of kinetic energy: on-site free-atom approximation to ZORA.
  Occupation type: Gaussian broadening, width =   0.100000E+00 eV.
  Found k-point grid:         4         4         1
  Using dipole correction.
  Calculating non-self-consistent second-variational spin-orbit coupling after scf-cycle
  You have request a SOC run with spin-polarization.
  symmetry_reduced_k_grid will be turned off.
  Calculating density of states with
  | energy interval :-10.000000  0.000000
  | points & tetrahedron method :  2001
  Calculating angular-momentum projected DOS with 
  | energy interval :-10.000000  0.000000
  | points & tetrahedron :  2001
  Using libMBD for calculating MBD and TS energies
 
  Reading configuration options for species Se                  .
  | Found nuclear charge :  34.0000
  | Found atomic mass :    78.9600000000000      amu
  | Found l_max for Hartree potential  :   6
  | Found cutoff potl. onset [A], width [A], scale factor :    4.00000    2.00000    1.00000
  | Threshold for basis-dependent cutoff potential is   0.100000E-03
  | Found data for basic radial integration grid :    55 points, outermost radius =    7.000 A
  | Found multiplier for basic radial grid :   2
  | Found angular grid specification: user-specified.
  | Specified grid contains     5 separate shells.
  | Check grid settings after all constraints further below.
  | Found free-atom valence shell :  4 s   2.000
  | Found free-atom valence shell :  4 p   4.000
  | Found free-atom valence shell :  3 d  10.000
  | Found free-ion valence shell :  4 s   1.000
  | Found free-ion valence shell :  4 p   3.000
  | Found free-ion valence shell :  3 d  10.000
  | Found hydrogenic basis function :  3 d   4.300
  | Found hydrogenic basis function :  2 p   1.600
  | Found hydrogenic basis function :  4 f   7.200
  | Found ionic basis function :  4 s , default cutoff radius.
  Species Se                  : Missing cutoff potential type.
  Defaulting to exp(1/x)/(1-x)^2 type cutoff potential.
  Species Se: No 'logarithmic' tag. Using default grid for free atom:
  | Default logarithmic grid data [bohr] : 0.1000E-03 0.1000E+03 0.1012E+01
  | Will include ionic basis functions of  2.0-fold positive Se                   ion.
  Species Se: On-site basis accuracy parameter (for Gram-Schmidt orthonormalisation) not specified.
  Using default value basis_acc =  0.1000000E-03.
  Species Se                  : Using default innermost maximum threshold i_radial=  2 for radial functions.
  Species Se                  : Default cutoff onset for free atom density etc. : 0.40000000E+01 AA.
  Species Se                  : Basic radial grid will be enhanced according to radial_multiplier =   2, to contain   111 grid points.
 
  Reading configuration options for species S                   .
  | Found nuclear charge :  16.0000
  | Found atomic mass :    32.0650000000000      amu
  | Found l_max for Hartree potential  :   6
  | Found cutoff potl. onset [A], width [A], scale factor :    4.00000    2.00000    1.00000
  | Threshold for basis-dependent cutoff potential is   0.100000E-03
  | Found data for basic radial integration grid :    44 points, outermost radius =    7.000 A
  | Found multiplier for basic radial grid :   2
  | Found angular grid specification: user-specified.
  | Specified grid contains     5 separate shells.
  | Check grid settings after all constraints further below.
  | Found free-atom valence shell :  3 s   2.000
  | Found free-atom valence shell :  3 p   4.000
  | Found free-ion valence shell :  3 s   1.000
  | Found free-ion valence shell :  3 p   3.000
  | Found ionic basis function :  3 d , default cutoff radius.
  | Found hydrogenic basis function :  2 p   1.800
  | Found hydrogenic basis function :  4 f   7.000
  | Found ionic basis function :  3 s , default cutoff radius.
  | Found hydrogenic extended basis function :  5 g  10.800
  Species S                   : Missing cutoff potential type.
  Defaulting to exp(1/x)/(1-x)^2 type cutoff potential.
  Species S : No 'logarithmic' tag. Using default grid for free atom:
  | Default logarithmic grid data [bohr] : 0.1000E-03 0.1000E+03 0.1012E+01
  | Will include ionic basis functions of  2.0-fold positive S                    ion.
  Species S : On-site basis accuracy parameter (for Gram-Schmidt orthonormalisation) not specified.
  Using default value basis_acc =  0.1000000E-03.
  Species S                   : Using default innermost maximum threshold i_radial=  2 for radial functions.
  Species S                   : Default cutoff onset for free atom density etc. : 0.40000000E+01 AA.
  Species S                   : Basic radial grid will be enhanced according to radial_multiplier =   2, to contain    89 grid points.
 
  Reading configuration options for species Mo                  .
  | Found nuclear charge :  42.0000
  | Found atomic mass :    95.9400000000000      amu
  | Found l_max for Hartree potential  :   6
  | Found cutoff potl. onset [A], width [A], scale factor :    4.00000    2.00000    1.00000
  | Threshold for basis-dependent cutoff potential is   0.100000E-03
  | Found data for basic radial integration grid :    59 points, outermost radius =    7.000 A
  | Found multiplier for basic radial grid :   2
  | Found angular grid specification: user-specified.
  | Specified grid contains     6 separate shells.
  | Check grid settings after all constraints further below.
  | Found free-atom valence shell :  5 s   1.000
  | Found free-atom valence shell :  4 p   6.000
  | Found free-atom valence shell :  4 d   5.000
  | Found free-ion valence shell :  5 s   0.000
  | Found free-ion valence shell :  4 p   6.000
  | Found free-ion valence shell :  4 d   4.000
  | Found hydrogenic basis function :  4 f   8.400
  | Found hydrogenic basis function :  3 d   2.800
  | Found ionic basis function :  5 p , default cutoff radius.
  | Found hydrogenic extended basis function :  5 g  12.000
  | Found ionic basis function :  5 s , default cutoff radius.
  Species Mo                  : Missing cutoff potential type.
  Defaulting to exp(1/x)/(1-x)^2 type cutoff potential.
  Species Mo: No 'logarithmic' tag. Using default grid for free atom:
  | Default logarithmic grid data [bohr] : 0.1000E-03 0.1000E+03 0.1012E+01
  | Will include ionic basis functions of  2.0-fold positive Mo                   ion.
  Species Mo: On-site basis accuracy parameter (for Gram-Schmidt orthonormalisation) not specified.
  Using default value basis_acc =  0.1000000E-03.
  Species Mo                  : Using default innermost maximum threshold i_radial=  2 for radial functions.
  Species Mo                  : Default cutoff onset for free atom density etc. : 0.40000000E+01 AA.
  Species Mo                  : Basic radial grid will be enhanced according to radial_multiplier =   2, to contain   119 grid points.
 
  Reading configuration options for species W                   .
  | Found nuclear charge :  74.0000
  | Found atomic mass :    183.840000000000      amu
  | Found l_max for Hartree potential  :   6
  | Found cutoff potl. onset [A], width [A], scale factor :    4.00000    2.00000    1.00000
  | Threshold for basis-dependent cutoff potential is   0.100000E-03
  | Found data for basic radial integration grid :    71 points, outermost radius =    7.000 A
  | Found multiplier for basic radial grid :   2
  | Found angular grid specification: user-specified.
  | Specified grid contains     6 separate shells.
  | Check grid settings after all constraints further below.
  | Found free-atom valence shell :  6 s   2.000
  | Found free-atom valence shell :  5 p   6.000
  | Found free-atom valence shell :  5 d   4.000
  | Found free-atom valence shell :  4 f  14.000
  | Found free-ion valence shell :  6 s   1.000
  | Found free-ion valence shell :  5 p   6.000
  | Found free-ion valence shell :  5 d   3.000
  | Found free-ion valence shell :  4 f  14.000
  | Found hydrogenic basis function :  4 f   7.800
  | Found hydrogenic basis function :  4 d   5.800
  | Found ionic basis function :  6 p , default cutoff radius.
  | Found hydrogenic extended basis function :  5 g  12.400
  | Found ionic basis function :  6 s , default cutoff radius.
  Species W                   : Missing cutoff potential type.
  Defaulting to exp(1/x)/(1-x)^2 type cutoff potential.
  Species W : No 'logarithmic' tag. Using default grid for free atom:
  | Default logarithmic grid data [bohr] : 0.1000E-03 0.1000E+03 0.1012E+01
  | Will include ionic basis functions of  2.0-fold positive W                    ion.
  Species W : On-site basis accuracy parameter (for Gram-Schmidt orthonormalisation) not specified.
  Using default value basis_acc =  0.1000000E-03.
  Species W                   : Using default innermost maximum threshold i_radial=  2 for radial functions.
  Species W                   : Default cutoff onset for free atom density etc. : 0.40000000E+01 AA.
  Species W                   : Basic radial grid will be enhanced according to radial_multiplier =   2, to contain   143 grid points.
 
  Finished reading input file 'control.in'.
 
------------------------------------------------------------


------------------------------------------------------------
          Reading geometry description geometry.in.
------------------------------------------------------------
  Vacuum level in z-axis :   0.103288E+03
  | The smallest distance between any two atoms is         2.49761132 AA.
  | The first atom of this pair is atom number                     20 .
  | The second atom of this pair is atom number                    35 .
  | Wigner-Seitz cell of the first atom image           0     0     1 .
  | (The Wigner-Seitz cell of the second atom is 0 0 0  by definition.)

  Symmetry information by spglib:
  | Precision set to  0.1E-04
  | Number of Operations  : 1
  | Space group           : 1
  | International         : P1
  | Schoenflies           : C1^1
  Input structure read successfully.
  The structure contains       73 atoms,  and a total of       2682.000 electrons.

  Input geometry:
  | Unit cell:
  |       16.31232095        0.00000000        0.00000000
  |       -8.15665875       14.12581815        0.00000000
  |        0.00000000        0.00000000      103.32585319
  | Atomic structure:
  |       Atom                x [A]            y [A]            z [A]
  |    1: Species Mo            0.00692823        0.94480960       51.62759380
  |    2: Species Se            1.64611302        1.89105935       53.29036949
  |    3: Species Se            1.64609000        1.89103541       49.96476548
  |    4: Species Mo           -1.63135676        3.76802710       51.62757427
  |    5: Species Se            0.03008677        4.69927351       53.28392477
  |    6: Species Se            0.03005655        4.69928602       49.97120833
  |    7: Species Mo           -3.28062901        6.58274528       51.62759184
  |    8: Species Se           -1.63146143        7.52409369       53.28196605
  |    9: Species Se           -1.63147654        7.52411408       49.97317985
  |   10: Species Mo           -4.91022819        9.40488405       51.62759355
  |   11: Species Se           -3.27031160       10.36228130       53.28196669
  |   12: Species Se           -3.27033788       10.36225277       49.97319235
  |   13: Species Mo           -6.52355747       12.24037734       51.62758062
  |   14: Species Se           -4.88624583       13.21342940       53.28393537
  |   15: Species Se           -4.88626252       13.21341091       49.97122935
  |   16: Species Mo            3.28394321        0.98950506       51.62756657
  |   17: Species Se            4.94927952        2.01435830       53.27870746
  |   18: Species Se            4.94927154        2.01437164       49.97641771
  |   19: Species Mo            1.68412026        3.76015473       51.62756762
  |   20: Species Se            3.40443489        4.68978965       53.27866650
  |   21: Species Se            3.40444076        4.68977548       49.97645396
  |   22: Species Mo            0.01771085        6.58275802       51.62758755
  |   23: Species Se            1.66101274        7.51546145       53.28428257
  |   24: Species Se            1.66101920        7.51550427       49.97084795
  |   25: Species Mo           -1.63156840        9.41621547       51.62756848
  |   26: Species Se            0.00717187       10.36226944       53.28195882
  |   27: Species Se            0.00719154       10.36225442       49.97318754
  |   28: Species Mo           -3.26114975       12.26107734       51.62757280
  |   29: Species Se           -1.63167601       13.21766766       53.28431517
  |   30: Species Se           -1.63166851       13.21765807       49.97083756
  |   31: Species Mo            6.52487431        0.99960424       51.62756276
  |   32: Species Se            8.10048385        2.01432831       53.27869438
  |   33: Species Se            8.10050738        2.01435991       49.97645322
  |   34: Species Mo            5.12561672        3.89982664       51.62756605
  |   35: Species Mo            3.31338192        6.56160147       51.62757832
  |   36: Species Se            4.98000828        7.41866164       53.27869879
  |   37: Species Se            4.98003582        7.41868988       49.97646463
  |   38: Species Mo            1.64711178        9.40488519       51.62760532
  |   39: Species Se            3.28448351       10.33596844       53.28393163
  |   40: Species Se            3.28452288       10.33599582       49.97124326
  |   41: Species Mo           -0.00217231       12.26104695       51.62758304
  |   42: Species Se            1.62288894       13.21340680       53.28394450
  |   43: Species Se            1.62294351       13.21343121       49.97123785
  |   44: Species Mo            9.76587042        0.98948160       51.62756426
  |   45: Species Se           11.40368019        1.89106190       53.29038965
  |   46: Species Se           11.40368067        1.89103649       49.96479454
  |   47: Species Mo            7.92400164        3.89983948       51.62758673
  |   48: Species Se            9.64513187        4.68979899       53.27868747
  |   49: Species Se            9.64514144        4.68978662       49.97648095
  |   50: Species Mo            6.52472473        6.32306192       51.62756783
  |   51: Species Se            8.06935594        7.41863197       53.27872683
  |   52: Species Se            8.06936227        7.41866705       49.97646368
  |   53: Species Mo            4.92492846        9.37325635       51.62758190
  |   54: Species Se            6.52459372       10.34086867       53.29041281
  |   55: Species Se            6.52458515       10.34087293       49.96479561
  |   56: Species Mo            3.26023272       12.24037273       51.62759265
  |   57: Species Se            4.89065050       13.18165779       53.28779195
  |   58: Species Se            4.89064945       13.18165205       49.96738866
  |   59: Species Mo           13.04290100        0.94480415       51.62758489
  |   60: Species Se           14.68105612        1.88549375       53.28780684
  |   61: Species Se           14.68104266        1.88548720       49.96737173
  |   62: Species Mo           11.36552507        3.76014866       51.62758305
  |   63: Species Se           13.01950853        4.69926866       53.28393065
  |   64: Species Se           13.01950745        4.69929314       49.97121857
  |   65: Species Mo            9.73602358        6.56162849       51.62757480
  |   66: Species Se           11.38837790        7.51547314       53.28430570
  |   67: Species Se           11.38836712        7.51551201       49.97085363
  |   68: Species Mo            8.12427622        9.37327621       51.62760145
  |   69: Species Se            9.76467433       10.33597776       53.28392908
  |   70: Species Se            9.76467777       10.33596994       49.97123931
  |   71: Species Mo            6.52452447       12.23348034       51.62760604
  |   72: Species Se            8.15834492       13.18166714       53.28780079
  |   73: Species Se            8.15833472       13.18163334       49.96737509

  Lattice parameters for 3D lattice (in Angstroms) :    16.312321   16.311647  103.325853
  Angle(s) between unit vectors (in degrees)       :    90.000000   90.000000  120.003388


  Quantities derived from the lattice vectors:
  | Reciprocal lattice vector 1:  0.385180  0.222414  0.000000
  | Reciprocal lattice vector 2:  0.000000  0.444802  0.000000
  | Reciprocal lattice vector 3:  0.000000  0.000000  0.060809
  | Unit cell volume                               :   0.238088E+05  A^3

  Fractional coordinates:
                         L1                L2                L3
       atom_frac         0.03386942        0.06688530        0.49965804  Mo
       atom_frac         0.16785262        0.13387255        0.51575059  Se
       atom_frac         0.16785036        0.13387086        0.48356499  Se
       atom_frac         0.03337427        0.26674753        0.49965786  Mo
       atom_frac         0.16819091        0.33267266        0.51568821  Se
       atom_frac         0.16818950        0.33267355        0.48362735  Se
       atom_frac         0.03190471        0.46600807        0.49965803  Mo
       atom_frac         0.16632638        0.53264835        0.51566926  Se
       atom_frac         0.16632618        0.53264979        0.48364643  Se
       atom_frac         0.03190384        0.66579393        0.49965804  Mo
       atom_frac         0.16632651        0.73357035        0.51566926  Se
       atom_frac         0.16632389        0.73356833        0.48364655  Se
       atom_frac         0.03337311        0.86652520        0.49965792  Mo
       atom_frac         0.16819023        0.93540985        0.51568832  Se
       atom_frac         0.16818856        0.93540854        0.48362755  Se
       atom_frac         0.23634357        0.07004940        0.49965778  Mo
       atom_frac         0.37471238        0.14260118        0.51563772  Se
       atom_frac         0.37471237        0.14260212        0.48367776  Se
       atom_frac         0.23634547        0.26619023        0.49965779  Mo
       atom_frac         0.37471406        0.33200128        0.51563732  Se
       atom_frac         0.37471392        0.33200027        0.48367812  Se
       atom_frac         0.23410446        0.46600897        0.49965798  Mo
       atom_frac         0.36786053        0.53203725        0.51569168  Se
       atom_frac         0.36786244        0.53204028        0.48362386  Se
       atom_frac         0.23329780        0.66659611        0.49965780  Mo
       atom_frac         0.36724682        0.73356951        0.51566919  Se
       atom_frac         0.36724749        0.73356844        0.48364650  Se
       atom_frac         0.23410239        0.86799060        0.49965784  Mo
       atom_frac         0.36785631        0.93570988        0.51569199  Se
       atom_frac         0.36785643        0.93570920        0.48362376  Se
       atom_frac         0.43538102        0.07076434        0.49965774  Mo
       atom_frac         0.56789072        0.14259905        0.51563759  Se
       atom_frac         0.56789328        0.14260129        0.48367811  Se
       atom_frac         0.45226490        0.27607793        0.49965778  Mo
       atom_frac         0.43539124        0.46451125        0.49965790  Mo
       atom_frac         0.56789954        0.52518456        0.51563764  Se
       atom_frac         0.56790223        0.52518656        0.48367822  Se
       atom_frac         0.43389082        0.66579402        0.49965816  Mo
       atom_frac         0.56722601        0.73170760        0.51568828  Se
       atom_frac         0.56722939        0.73170953        0.48362769  Se
       atom_frac         0.43388757        0.86798845        0.49965794  Mo
       atom_frac         0.56722123        0.93540825        0.51568841  Se
       atom_frac         0.56722544        0.93540998        0.48362763  Se
       atom_frac         0.63370663        0.07004774        0.49965776  Mo
       atom_frac         0.76602431        0.13387273        0.51575078  Se
       atom_frac         0.76602344        0.13387094        0.48356527  Se
       atom_frac         0.62381574        0.27607884        0.49965798  Mo
       atom_frac         0.75729005        0.33200194        0.51563753  Se
       atom_frac         0.75729020        0.33200106        0.48367838  Se
       atom_frac         0.62381343        0.44762447        0.49965779  Mo
       atom_frac         0.75728586        0.52518246        0.51563791  Se
       atom_frac         0.75728749        0.52518495        0.48367821  Se
       atom_frac         0.63371237        0.66355494        0.49965793  Mo
       atom_frac         0.76602909        0.73205449        0.51575101  Se
       atom_frac         0.76602872        0.73205480        0.48356528  Se
       atom_frac         0.63315211        0.86652487        0.49965803  Mo
       atom_frac         0.76642212        0.93316066        0.51572564  Se
       atom_frac         0.76642185        0.93316025        0.48359038  Se
       atom_frac         0.83301809        0.06688492        0.49965796  Mo
       atom_frac         0.96674135        0.13347855        0.51572579  Se
       atom_frac         0.96674029        0.13347809        0.48359022  Se
       atom_frac         0.82984785        0.26618980        0.49965794  Mo
       atom_frac         0.96448587        0.33267232        0.51568827  Se
       atom_frac         0.96448667        0.33267405        0.48362745  Se
       atom_frac         0.82912168        0.46451316        0.49965786  Mo
       atom_frac         0.96418106        0.53203808        0.51569190  Se
       atom_frac         0.96418178        0.53204083        0.48362391  Se
       atom_frac         0.82984383        0.66355634        0.49965812  Mo
       atom_frac         0.96448377        0.73170826        0.51568826  Se
       atom_frac         0.96448371        0.73170770        0.48362765  Se
       atom_frac         0.83302016        0.86603694        0.49965816  Mo
       atom_frac         0.96674308        0.93316132        0.51572573  Se
       atom_frac         0.96674126        0.93315893        0.48359025  Se

  Initial moments and charges:
  |  Atom   Moment         Charge        Species
  |     1   0.100000E+01   0.000000E+00   Mo
  |     2   0.100000E+01   0.000000E+00   Se
  |     3   0.100000E+01   0.000000E+00   Se
  |     4   0.100000E+01   0.000000E+00   Mo
  |     5   0.100000E+01   0.000000E+00   Se
  |     6   0.100000E+01   0.000000E+00   Se
  |     7   0.100000E+01   0.000000E+00   Mo
  |     8   0.100000E+01   0.000000E+00   Se
  |     9   0.100000E+01   0.000000E+00   Se
  |    10   0.100000E+01   0.000000E+00   Mo
  |    11   0.100000E+01   0.000000E+00   Se
  |    12   0.100000E+01   0.000000E+00   Se
  |    13   0.100000E+01   0.000000E+00   Mo
  |    14   0.100000E+01   0.000000E+00   Se
  |    15   0.100000E+01   0.000000E+00   Se
  |    16   0.100000E+01   0.000000E+00   Mo
  |    17   0.100000E+01   0.000000E+00   Se
  |    18   0.100000E+01   0.000000E+00   Se
  |    19   0.100000E+01   0.000000E+00   Mo
  |    20   0.100000E+01   0.000000E+00   Se
  |    21   0.100000E+01   0.000000E+00   Se
  |    22   0.100000E+01   0.000000E+00   Mo
  |    23   0.100000E+01   0.000000E+00   Se
  |    24   0.100000E+01   0.000000E+00   Se
  |    25   0.100000E+01   0.000000E+00   Mo
  |    26   0.100000E+01   0.000000E+00   Se
  |    27   0.100000E+01   0.000000E+00   Se
  |    28   0.100000E+01   0.000000E+00   Mo
  |    29   0.100000E+01   0.000000E+00   Se
  |    30   0.100000E+01   0.000000E+00   Se
  |    31   0.100000E+01   0.000000E+00   Mo
  |    32   0.100000E+01   0.000000E+00   Se
  |    33   0.100000E+01   0.000000E+00   Se
  |    34   0.100000E+01   0.000000E+00   Mo
  |    35   0.100000E+01   0.000000E+00   Mo
  |    36   0.100000E+01   0.000000E+00   Se
  |    37   0.100000E+01   0.000000E+00   Se
  |    38   0.100000E+01   0.000000E+00   Mo
  |    39   0.100000E+01   0.000000E+00   Se
  |    40   0.100000E+01   0.000000E+00   Se
  |    41   0.100000E+01   0.000000E+00   Mo
  |    42   0.100000E+01   0.000000E+00   Se
  |    43   0.100000E+01   0.000000E+00   Se
  |    44   0.100000E+01   0.000000E+00   Mo
  |    45   0.100000E+01   0.000000E+00   Se
  |    46   0.100000E+01   0.000000E+00   Se
  |    47   0.100000E+01   0.000000E+00   Mo
  |    48   0.100000E+01   0.000000E+00   Se
  |    49   0.100000E+01   0.000000E+00   Se
  |    50   0.100000E+01   0.000000E+00   Mo
  |    51   0.100000E+01   0.000000E+00   Se
  |    52   0.100000E+01   0.000000E+00   Se
  |    53   0.100000E+01   0.000000E+00   Mo
  |    54   0.100000E+01   0.000000E+00   Se
  |    55   0.100000E+01   0.000000E+00   Se
  |    56   0.100000E+01   0.000000E+00   Mo
  |    57   0.100000E+01   0.000000E+00   Se
  |    58   0.100000E+01   0.000000E+00   Se
  |    59   0.100000E+01   0.000000E+00   Mo
  |    60   0.100000E+01   0.000000E+00   Se
  |    61   0.100000E+01   0.000000E+00   Se
  |    62   0.100000E+01   0.000000E+00   Mo
  |    63   0.100000E+01   0.000000E+00   Se
  |    64   0.100000E+01   0.000000E+00   Se
  |    65   0.100000E+01   0.000000E+00   Mo
  |    66   0.100000E+01   0.000000E+00   Se
  |    67   0.100000E+01   0.000000E+00   Se
  |    68   0.100000E+01   0.000000E+00   Mo
  |    69   0.100000E+01   0.000000E+00   Se
  |    70   0.100000E+01   0.000000E+00   Se
  |    71   0.100000E+01   0.000000E+00   Mo
  |    72   0.100000E+01   0.000000E+00   Se
  |    73   0.100000E+01   0.000000E+00   Se

 
  Finished reading input file 'control.in'.
 

------------------------------------------------------------
          Reading geometry description geometry.in.
------------------------------------------------------------
 
  Consistency checks for stacksize environment parameter are next.
 
  | Maximum stacksize for task 0: unlimited
  | Maximum stacksize for task 1: unlimited
  | Maximum stacksize for task 2: unlimited
  | Maximum stacksize for task 3: unlimited
  | Maximum stacksize for task 4: unlimited
  | Maximum stacksize for task 5: unlimited
  | Maximum stacksize for task 6: unlimited
  | Maximum stacksize for task 7: unlimited
  | Maximum stacksize for task 8: unlimited
  | Maximum stacksize for task 9: unlimited
  | Maximum stacksize for task 10: unlimited
  | Maximum stacksize for task 11: unlimited
  | Maximum stacksize for task 12: unlimited
  | Maximum stacksize for task 13: unlimited
  | Maximum stacksize for task 14: unlimited
  | Maximum stacksize for task 15: unlimited
  | Maximum stacksize for task 16: unlimited
  | Maximum stacksize for task 17: unlimited
  | Maximum stacksize for task 18: unlimited
  | Maximum stacksize for task 19: unlimited
  | Maximum stacksize for task 20: unlimited
  | Maximum stacksize for task 21: unlimited
  | Maximum stacksize for task 22: unlimited
  | Maximum stacksize for task 23: unlimited
  | Maximum stacksize for task 24: unlimited
  | Maximum stacksize for task 25: unlimited
  | Maximum stacksize for task 26: unlimited
  | Maximum stacksize for task 27: unlimited
  | Maximum stacksize for task 28: unlimited
  | Maximum stacksize for task 29: unlimited
  | Maximum stacksize for task 30: unlimited
  | Maximum stacksize for task 31: unlimited
  | Maximum stacksize for task 32: unlimited
  | Maximum stacksize for task 33: unlimited
  | Maximum stacksize for task 34: unlimited
  | Maximum stacksize for task 35: unlimited
  | Maximum stacksize for task 36: unlimited
  | Maximum stacksize for task 37: unlimited
  | Maximum stacksize for task 38: unlimited
  | Maximum stacksize for task 39: unlimited
  | Maximum stacksize for task 40: unlimited
  | Maximum stacksize for task 41: unlimited
  | Maximum stacksize for task 42: unlimited
  | Maximum stacksize for task 43: unlimited
  | Maximum stacksize for task 44: unlimited
  | Maximum stacksize for task 45: unlimited
  | Maximum stacksize for task 46: unlimited
  | Maximum stacksize for task 47: unlimited
  | Maximum stacksize for task 48: unlimited
  | Maximum stacksize for task 49: unlimited
  | Maximum stacksize for task 50: unlimited
  | Maximum stacksize for task 51: unlimited
  | Maximum stacksize for task 52: unlimited
  | Maximum stacksize for task 53: unlimited
  | Maximum stacksize for task 54: unlimited
  | Maximum stacksize for task 55: unlimited
  | Maximum stacksize for task 56: unlimited
  | Maximum stacksize for task 57: unlimited
  | Maximum stacksize for task 58: unlimited
  | Maximum stacksize for task 59: unlimited
  | Maximum stacksize for task 60: unlimited
  | Maximum stacksize for task 61: unlimited
  | Maximum stacksize for task 62: unlimited
  | Maximum stacksize for task 63: unlimited
  | Maximum stacksize for task 64: unlimited
  | Maximum stacksize for task 65: unlimited
  | Maximum stacksize for task 66: unlimited
  | Maximum stacksize for task 67: unlimited
  | Maximum stacksize for task 68: unlimited
  | Maximum stacksize for task 69: unlimited
  | Maximum stacksize for task 70: unlimited
  | Maximum stacksize for task 71: unlimited
  | Maximum stacksize for task 72: unlimited
  | Maximum stacksize for task 73: unlimited
  | Maximum stacksize for task 74: unlimited
  | Maximum stacksize for task 75: unlimited
  | Maximum stacksize for task 76: unlimited
  | Maximum stacksize for task 77: unlimited
  | Maximum stacksize for task 78: unlimited
  | Maximum stacksize for task 79: unlimited
  | Maximum stacksize for task 80: unlimited
  | Maximum stacksize for task 81: unlimited
  | Maximum stacksize for task 82: unlimited
  | Maximum stacksize for task 83: unlimited
  | Maximum stacksize for task 84: unlimited
  | Maximum stacksize for task 85: unlimited
  | Maximum stacksize for task 86: unlimited
  | Maximum stacksize for task 87: unlimited
  | Maximum stacksize for task 88: unlimited
  | Maximum stacksize for task 89: unlimited
  | Maximum stacksize for task 90: unlimited
  | Maximum stacksize for task 91: unlimited
  | Maximum stacksize for task 92: unlimited
  | Maximum stacksize for task 93: unlimited
  | Maximum stacksize for task 94: unlimited
  | Maximum stacksize for task 95: unlimited
  | Maximum stacksize for task 96: unlimited
  | Maximum stacksize for task 97: unlimited
  | Maximum stacksize for task 98: unlimited
  | Maximum stacksize for task 99: unlimited
  | Maximum stacksize for task 100: unlimited
  | Maximum stacksize for task 101: unlimited
  | Maximum stacksize for task 102: unlimited
  | Maximum stacksize for task 103: unlimited
  | Maximum stacksize for task 104: unlimited
  | Maximum stacksize for task 105: unlimited
  | Maximum stacksize for task 106: unlimited
  | Maximum stacksize for task 107: unlimited
  | Maximum stacksize for task 108: unlimited
  | Maximum stacksize for task 109: unlimited
  | Maximum stacksize for task 110: unlimited
  | Maximum stacksize for task 111: unlimited
  | Maximum stacksize for task 112: unlimited
  | Maximum stacksize for task 113: unlimited
  | Maximum stacksize for task 114: unlimited
  | Maximum stacksize for task 115: unlimited
  | Maximum stacksize for task 116: unlimited
  | Maximum stacksize for task 117: unlimited
  | Maximum stacksize for task 118: unlimited
  | Maximum stacksize for task 119: unlimited
  | Maximum stacksize for task 120: unlimited
  | Maximum stacksize for task 121: unlimited
  | Maximum stacksize for task 122: unlimited
  | Maximum stacksize for task 123: unlimited
  | Maximum stacksize for task 124: unlimited
  | Maximum stacksize for task 125: unlimited
  | Maximum stacksize for task 126: unlimited
  | Maximum stacksize for task 127: unlimited
  | Maximum stacksize for task 128: unlimited
  | Maximum stacksize for task 129: unlimited
  | Maximum stacksize for task 130: unlimited
  | Maximum stacksize for task 131: unlimited
  | Maximum stacksize for task 132: unlimited
  | Maximum stacksize for task 133: unlimited
  | Maximum stacksize for task 134: unlimited
  | Maximum stacksize for task 135: unlimited
  | Maximum stacksize for task 136: unlimited
  | Maximum stacksize for task 137: unlimited
  | Maximum stacksize for task 138: unlimited
  | Maximum stacksize for task 139: unlimited
  | Maximum stacksize for task 140: unlimited
  | Maximum stacksize for task 141: unlimited
  | Maximum stacksize for task 142: unlimited
  | Maximum stacksize for task 143: unlimited
  | Maximum stacksize for task 144: unlimited
  | Maximum stacksize for task 145: unlimited
  | Maximum stacksize for task 146: unlimited
  | Maximum stacksize for task 147: unlimited
  | Maximum stacksize for task 148: unlimited
  | Maximum stacksize for task 149: unlimited
  | Maximum stacksize for task 150: unlimited
  | Maximum stacksize for task 151: unlimited
  | Maximum stacksize for task 152: unlimited
  | Maximum stacksize for task 153: unlimited
  | Maximum stacksize for task 154: unlimited
  | Maximum stacksize for task 155: unlimited
  | Maximum stacksize for task 156: unlimited
  | Maximum stacksize for task 157: unlimited
  | Maximum stacksize for task 158: unlimited
  | Maximum stacksize for task 159: unlimited
  | Maximum stacksize for task 160: unlimited
  | Maximum stacksize for task 161: unlimited
  | Maximum stacksize for task 162: unlimited
  | Maximum stacksize for task 163: unlimited
  | Maximum stacksize for task 164: unlimited
  | Maximum stacksize for task 165: unlimited
  | Maximum stacksize for task 166: unlimited
  | Maximum stacksize for task 167: unlimited
  | Maximum stacksize for task 168: unlimited
  | Maximum stacksize for task 169: unlimited
  | Maximum stacksize for task 170: unlimited
  | Maximum stacksize for task 171: unlimited
  | Maximum stacksize for task 172: unlimited
  | Maximum stacksize for task 173: unlimited
  | Maximum stacksize for task 174: unlimited
  | Maximum stacksize for task 175: unlimited
  | Maximum stacksize for task 176: unlimited
  | Maximum stacksize for task 177: unlimited
  | Maximum stacksize for task 178: unlimited
  | Maximum stacksize for task 179: unlimited
  | Maximum stacksize for task 180: unlimited
  | Maximum stacksize for task 181: unlimited
  | Maximum stacksize for task 182: unlimited
  | Maximum stacksize for task 183: unlimited
  | Maximum stacksize for task 184: unlimited
  | Maximum stacksize for task 185: unlimited
  | Maximum stacksize for task 186: unlimited
  | Maximum stacksize for task 187: unlimited
  | Maximum stacksize for task 188: unlimited
  | Maximum stacksize for task 189: unlimited
  | Maximum stacksize for task 190: unlimited
  | Maximum stacksize for task 191: unlimited
  | Maximum stacksize for task 192: unlimited
  | Maximum stacksize for task 193: unlimited
  | Maximum stacksize for task 194: unlimited
  | Maximum stacksize for task 195: unlimited
  | Maximum stacksize for task 196: unlimited
  | Maximum stacksize for task 197: unlimited
  | Maximum stacksize for task 198: unlimited
  | Maximum stacksize for task 199: unlimited
  | Maximum stacksize for task 200: unlimited
  | Maximum stacksize for task 201: unlimited
  | Maximum stacksize for task 202: unlimited
  | Maximum stacksize for task 203: unlimited
  | Maximum stacksize for task 204: unlimited
  | Maximum stacksize for task 205: unlimited
  | Maximum stacksize for task 206: unlimited
  | Maximum stacksize for task 207: unlimited
  | Maximum stacksize for task 208: unlimited
  | Maximum stacksize for task 209: unlimited
  | Maximum stacksize for task 210: unlimited
  | Maximum stacksize for task 211: unlimited
  | Maximum stacksize for task 212: unlimited
  | Maximum stacksize for task 213: unlimited
  | Maximum stacksize for task 214: unlimited
  | Maximum stacksize for task 215: unlimited
  | Maximum stacksize for task 216: unlimited
  | Maximum stacksize for task 217: unlimited
  | Maximum stacksize for task 218: unlimited
  | Maximum stacksize for task 219: unlimited
  | Maximum stacksize for task 220: unlimited
  | Maximum stacksize for task 221: unlimited
  | Maximum stacksize for task 222: unlimited
  | Maximum stacksize for task 223: unlimited
  | Maximum stacksize for task 224: unlimited
  | Maximum stacksize for task 225: unlimited
  | Maximum stacksize for task 226: unlimited
  | Maximum stacksize for task 227: unlimited
  | Maximum stacksize for task 228: unlimited
  | Maximum stacksize for task 229: unlimited
  | Maximum stacksize for task 230: unlimited
  | Maximum stacksize for task 231: unlimited
  | Maximum stacksize for task 232: unlimited
  | Maximum stacksize for task 233: unlimited
  | Maximum stacksize for task 234: unlimited
  | Maximum stacksize for task 235: unlimited
  | Maximum stacksize for task 236: unlimited
  | Maximum stacksize for task 237: unlimited
  | Maximum stacksize for task 238: unlimited
  | Maximum stacksize for task 239: unlimited
  | Maximum stacksize for task 240: unlimited
  | Maximum stacksize for task 241: unlimited
  | Maximum stacksize for task 242: unlimited
  | Maximum stacksize for task 243: unlimited
  | Maximum stacksize for task 244: unlimited
  | Maximum stacksize for task 245: unlimited
  | Maximum stacksize for task 246: unlimited
  | Maximum stacksize for task 247: unlimited
  | Maximum stacksize for task 248: unlimited
  | Maximum stacksize for task 249: unlimited
  | Maximum stacksize for task 250: unlimited
  | Maximum stacksize for task 251: unlimited
  | Maximum stacksize for task 252: unlimited
  | Maximum stacksize for task 253: unlimited
  | Maximum stacksize for task 254: unlimited
  | Maximum stacksize for task 255: unlimited
  | Maximum stacksize for task 256: unlimited
  | Maximum stacksize for task 257: unlimited
  | Maximum stacksize for task 258: unlimited
  | Maximum stacksize for task 259: unlimited
  | Maximum stacksize for task 260: unlimited
  | Maximum stacksize for task 261: unlimited
  | Maximum stacksize for task 262: unlimited
  | Maximum stacksize for task 263: unlimited
  | Maximum stacksize for task 264: unlimited
  | Maximum stacksize for task 265: unlimited
  | Maximum stacksize for task 266: unlimited
  | Maximum stacksize for task 267: unlimited
  | Maximum stacksize for task 268: unlimited
  | Maximum stacksize for task 269: unlimited
  | Maximum stacksize for task 270: unlimited
  | Maximum stacksize for task 271: unlimited
  | Maximum stacksize for task 272: unlimited
  | Maximum stacksize for task 273: unlimited
  | Maximum stacksize for task 274: unlimited
  | Maximum stacksize for task 275: unlimited
  | Maximum stacksize for task 276: unlimited
  | Maximum stacksize for task 277: unlimited
  | Maximum stacksize for task 278: unlimited
  | Maximum stacksize for task 279: unlimited
  | Maximum stacksize for task 280: unlimited
  | Maximum stacksize for task 281: unlimited
  | Maximum stacksize for task 282: unlimited
  | Maximum stacksize for task 283: unlimited
  | Maximum stacksize for task 284: unlimited
  | Maximum stacksize for task 285: unlimited
  | Maximum stacksize for task 286: unlimited
  | Maximum stacksize for task 287: unlimited
  | Current stacksize for task 0: unlimited
  | Current stacksize for task 1: unlimited
  | Current stacksize for task 2: unlimited
  | Current stacksize for task 3: unlimited
  | Current stacksize for task 4: unlimited
  | Current stacksize for task 5: unlimited
  | Current stacksize for task 6: unlimited
  | Current stacksize for task 7: unlimited
  | Current stacksize for task 8: unlimited
  | Current stacksize for task 9: unlimited
  | Current stacksize for task 10: unlimited
  | Current stacksize for task 11: unlimited
  | Current stacksize for task 12: unlimited
  | Current stacksize for task 13: unlimited
  | Current stacksize for task 14: unlimited
  | Current stacksize for task 15: unlimited
  | Current stacksize for task 16: unlimited
  | Current stacksize for task 17: unlimited
  | Current stacksize for task 18: unlimited
  | Current stacksize for task 19: unlimited
  | Current stacksize for task 20: unlimited
  | Current stacksize for task 21: unlimited
  | Current stacksize for task 22: unlimited
  | Current stacksize for task 23: unlimited
  | Current stacksize for task 24: unlimited
  | Current stacksize for task 25: unlimited
  | Current stacksize for task 26: unlimited
  | Current stacksize for task 27: unlimited
  | Current stacksize for task 28: unlimited
  | Current stacksize for task 29: unlimited
  | Current stacksize for task 30: unlimited
  | Current stacksize for task 31: unlimited
  | Current stacksize for task 32: unlimited
  | Current stacksize for task 33: unlimited
  | Current stacksize for task 34: unlimited
  | Current stacksize for task 35: unlimited
  | Current stacksize for task 36: unlimited
  | Current stacksize for task 37: unlimited
  | Current stacksize for task 38: unlimited
  | Current stacksize for task 39: unlimited
  | Current stacksize for task 40: unlimited
  | Current stacksize for task 41: unlimited
  | Current stacksize for task 42: unlimited
  | Current stacksize for task 43: unlimited
  | Current stacksize for task 44: unlimited
  | Current stacksize for task 45: unlimited
  | Current stacksize for task 46: unlimited
  | Current stacksize for task 47: unlimited
  | Current stacksize for task 48: unlimited
  | Current stacksize for task 49: unlimited
  | Current stacksize for task 50: unlimited
  | Current stacksize for task 51: unlimited
  | Current stacksize for task 52: unlimited
  | Current stacksize for task 53: unlimited
  | Current stacksize for task 54: unlimited
  | Current stacksize for task 55: unlimited
  | Current stacksize for task 56: unlimited
  | Current stacksize for task 57: unlimited
  | Current stacksize for task 58: unlimited
  | Current stacksize for task 59: unlimited
  | Current stacksize for task 60: unlimited
  | Current stacksize for task 61: unlimited
  | Current stacksize for task 62: unlimited
  | Current stacksize for task 63: unlimited
  | Current stacksize for task 64: unlimited
  | Current stacksize for task 65: unlimited
  | Current stacksize for task 66: unlimited
  | Current stacksize for task 67: unlimited
  | Current stacksize for task 68: unlimited
  | Current stacksize for task 69: unlimited
  | Current stacksize for task 70: unlimited
  | Current stacksize for task 71: unlimited
  | Current stacksize for task 72: unlimited
  | Current stacksize for task 73: unlimited
  | Current stacksize for task 74: unlimited
  | Current stacksize for task 75: unlimited
  | Current stacksize for task 76: unlimited
  | Current stacksize for task 77: unlimited
  | Current stacksize for task 78: unlimited
  | Current stacksize for task 79: unlimited
  | Current stacksize for task 80: unlimited
  | Current stacksize for task 81: unlimited
  | Current stacksize for task 82: unlimited
  | Current stacksize for task 83: unlimited
  | Current stacksize for task 84: unlimited
  | Current stacksize for task 85: unlimited
  | Current stacksize for task 86: unlimited
  | Current stacksize for task 87: unlimited
  | Current stacksize for task 88: unlimited
  | Current stacksize for task 89: unlimited
  | Current stacksize for task 90: unlimited
  | Current stacksize for task 91: unlimited
  | Current stacksize for task 92: unlimited
  | Current stacksize for task 93: unlimited
  | Current stacksize for task 94: unlimited
  | Current stacksize for task 95: unlimited
  | Current stacksize for task 96: unlimited
  | Current stacksize for task 97: unlimited
  | Current stacksize for task 98: unlimited
  | Current stacksize for task 99: unlimited
  | Current stacksize for task 100: unlimited
  | Current stacksize for task 101: unlimited
  | Current stacksize for task 102: unlimited
  | Current stacksize for task 103: unlimited
  | Current stacksize for task 104: unlimited
  | Current stacksize for task 105: unlimited
  | Current stacksize for task 106: unlimited
  | Current stacksize for task 107: unlimited
  | Current stacksize for task 108: unlimited
  | Current stacksize for task 109: unlimited
  | Current stacksize for task 110: unlimited
  | Current stacksize for task 111: unlimited
  | Current stacksize for task 112: unlimited
  | Current stacksize for task 113: unlimited
  | Current stacksize for task 114: unlimited
  | Current stacksize for task 115: unlimited
  | Current stacksize for task 116: unlimited
  | Current stacksize for task 117: unlimited
  | Current stacksize for task 118: unlimited
  | Current stacksize for task 119: unlimited
  | Current stacksize for task 120: unlimited
  | Current stacksize for task 121: unlimited
  | Current stacksize for task 122: unlimited
  | Current stacksize for task 123: unlimited
  | Current stacksize for task 124: unlimited
  | Current stacksize for task 125: unlimited
  | Current stacksize for task 126: unlimited
  | Current stacksize for task 127: unlimited
  | Current stacksize for task 128: unlimited
  | Current stacksize for task 129: unlimited
  | Current stacksize for task 130: unlimited
  | Current stacksize for task 131: unlimited
[...]
  |    29       34.049335       -0.049335        7.887971       15.934277       10.182430        0.044657
  |    30       34.049340       -0.049340        7.887971       15.934285       10.182428        0.044656
  |    31       41.947214        0.052786        8.203525       18.741747       14.914085        0.087857
  |    32       34.047158       -0.047158        7.889265       15.925421       10.187706        0.044766
  |    33       34.047157       -0.047157        7.889264       15.925419       10.187707        0.044766
  |    34       41.883333        0.116667        8.272315       18.687114       14.858289        0.065615
  |    35       41.947671        0.052329        8.203815       18.741878       14.914126        0.087852
  |    36       34.047131       -0.047131        7.889189       15.925461       10.187712        0.044769
  |    37       34.047132       -0.047132        7.889188       15.925461       10.187714        0.044769
  |    38       41.906877        0.093123        8.198465       18.732627       14.889500        0.086285
  |    39       34.054054       -0.054054        7.887878       15.938231       10.182806        0.045138
  |    40       34.054052       -0.054052        7.887879       15.938229       10.182806        0.045138
  |    41       41.906899        0.093101        8.198534       18.732558       14.889523        0.086284
  |    42       34.054028       -0.054028        7.887859       15.938226       10.182805        0.045138
  |    43       34.054027       -0.054027        7.887856       15.938220       10.182812        0.045140
  |    44       41.898014        0.101986        8.190841       18.721201       14.904005        0.081967
  |    45       34.049697       -0.049697        7.887244       15.924405       10.190809        0.047239
  |    46       34.049699       -0.049699        7.887240       15.924399       10.190819        0.047241
  |    47       41.883315        0.116685        8.272327       18.687103       14.858268        0.065616
  |    48       34.047125       -0.047125        7.889227       15.925426       10.187705        0.044767
  |    49       34.047125       -0.047125        7.889227       15.925426       10.187706        0.044767
  |    50       41.882106        0.117894        8.271476       18.686796       14.858222        0.065612
  |    51       34.047132       -0.047132        7.889191       15.925468       10.187706        0.044767
  |    52       34.047135       -0.047135        7.889188       15.925464       10.187713        0.044769
  |    53       41.898450        0.101550        8.191130       18.721290       14.904065        0.081965
  |    54       34.049505       -0.049505        7.887186       15.924274       10.190807        0.047239
  |    55       34.049506       -0.049506        7.887183       15.924268       10.190815        0.047241
  |    56       41.895735        0.104265        8.194147       18.727945       14.888847        0.084797
  |    57       34.050086       -0.050086        7.887614       15.929465       10.186720        0.046287
  |    58       34.050088       -0.050088        7.887613       15.929465       10.186722        0.046288
  |    59       41.896300        0.103700        8.191085       18.726157       14.893926        0.085132
  |    60       34.050179       -0.050179        7.887649       15.929519       10.186723        0.046288
  |    61       34.050180       -0.050180        7.887647       15.929519       10.186725        0.046289
  |    62       41.898228        0.101772        8.190927       18.721328       14.904008        0.081966
  |    63       34.054174       -0.054174        7.887928       15.938287       10.182819        0.045141
  |    64       34.054177       -0.054177        7.887929       15.938295       10.182814        0.045140
  |    65       41.947675        0.052325        8.203815       18.741883       14.914125        0.087852
  |    66       34.049499       -0.049499        7.888049       15.934367       10.182427        0.044655
  |    67       34.049500       -0.049500        7.888050       15.934369       10.182426        0.044655
  |    68       41.898453        0.101547        8.191137       18.721290       14.904061        0.081964
  |    69       34.054049       -0.054049        7.887879       15.938225       10.182807        0.045138
  |    70       34.054050       -0.054050        7.887879       15.938228       10.182805        0.045138
  |    71       41.896343        0.103657        8.191151       18.726117       14.893943        0.085132
  |    72       34.050084       -0.050084        7.887614       15.929460       10.186722        0.046288
  |    73       34.050087       -0.050087        7.887614       15.929465       10.186720        0.046287
  |
  | Total     2682.000000       -0.000000
 
  Summary of the per-atom spin analysis:
  |
  |  atom   spin      l=0         l=1         l=2         l=3
  |     1    0.000007    0.000000    0.000001    0.000007   -0.000000
  |     2   -0.000001   -0.000000   -0.000001    0.000000    0.000000
  |     3   -0.000001   -0.000000   -0.000001    0.000000    0.000000
  |     4   -0.000014   -0.000001   -0.000001   -0.000012    0.000000
  |     5    0.000001    0.000000    0.000001   -0.000000   -0.000000
  |     6    0.000001    0.000000    0.000001   -0.000000   -0.000000
  |     7    0.000002   -0.000000    0.000000    0.000002   -0.000000
  |     8    0.000000    0.000000    0.000000   -0.000000   -0.000000
  |     9    0.000000    0.000000    0.000000   -0.000000   -0.000000
  |    10    0.000002   -0.000000    0.000000    0.000002   -0.000000
  |    11    0.000000    0.000000    0.000000   -0.000000   -0.000000
  |    12    0.000000    0.000000    0.000000   -0.000000   -0.000000
  |    13   -0.000014   -0.000001   -0.000001   -0.000012    0.000000
  |    14    0.000001    0.000000    0.000001   -0.000000   -0.000000
  |    15    0.000001    0.000000    0.000001   -0.000000   -0.000000
  |    16   -0.000001   -0.000000   -0.000000   -0.000001   -0.000000
  |    17    0.000000    0.000000   -0.000000   -0.000000    0.000000
  |    18    0.000000    0.000000   -0.000000   -0.000000    0.000000
  |    19   -0.000001   -0.000000   -0.000000   -0.000001   -0.000000
  |    20   -0.000000    0.000000   -0.000000   -0.000000    0.000000
  |    21   -0.000000    0.000000   -0.000000   -0.000000    0.000000
  |    22    0.000002   -0.000000    0.000000    0.000002   -0.000000
  |    23   -0.000001   -0.000000   -0.000001    0.000000    0.000000
  |    24   -0.000001   -0.000000   -0.000001    0.000000    0.000000
  |    25   -0.000010   -0.000001   -0.000001   -0.000008   -0.000000
  |    26    0.000000    0.000000    0.000000   -0.000000   -0.000000
  |    27    0.000000    0.000000    0.000000   -0.000000   -0.000000
  |    28    0.000002   -0.000000    0.000000    0.000002   -0.000000
  |    29   -0.000001   -0.000000   -0.000001    0.000000    0.000000
  |    30   -0.000001   -0.000000   -0.000001    0.000000    0.000000
  |    31    0.000009    0.000000    0.000001    0.000008   -0.000000
  |    32    0.000000    0.000000   -0.000000   -0.000000    0.000000
  |    33    0.000000    0.000000   -0.000000   -0.000000    0.000000
  |    34   -0.000004   -0.000001   -0.000001   -0.000002   -0.000000
  |    35    0.000009    0.000000    0.000001    0.000008   -0.000000
  |    36    0.000000    0.000000   -0.000000   -0.000000    0.000000
  |    37    0.000000    0.000000   -0.000000   -0.000000    0.000000
  |    38    0.000002   -0.000000    0.000000    0.000002   -0.000000
  |    39    0.000001    0.000000    0.000001   -0.000000   -0.000000
  |    40    0.000001    0.000000    0.000001   -0.000000   -0.000000
  |    41    0.000002   -0.000000    0.000000    0.000002   -0.000000
  |    42    0.000001    0.000000    0.000001   -0.000000   -0.000000
  |    43    0.000001    0.000000    0.000001   -0.000000   -0.000000
  |    44   -0.000001   -0.000000   -0.000000   -0.000001   -0.000000
  |    45   -0.000001   -0.000000   -0.000001    0.000000    0.000000
  |    46   -0.000001   -0.000000   -0.000001    0.000000    0.000000
  |    47   -0.000004   -0.000001   -0.000001   -0.000002   -0.000000
  |    48   -0.000000    0.000000   -0.000000   -0.000000    0.000000
  |    49   -0.000000    0.000000   -0.000000   -0.000000    0.000000
  |    50   -0.000004   -0.000001   -0.000001   -0.000002   -0.000000
  |    51    0.000000    0.000000   -0.000000   -0.000000    0.000000
  |    52    0.000000    0.000000   -0.000000   -0.000000    0.000000
  |    53   -0.000001   -0.000000   -0.000000   -0.000001   -0.000000
  |    54   -0.000001   -0.000000   -0.000001    0.000000    0.000000
  |    55   -0.000001   -0.000000   -0.000001    0.000000    0.000000
  |    56   -0.000014   -0.000001   -0.000001   -0.000012    0.000000
  |    57    0.000000    0.000000    0.000000   -0.000000    0.000000
  |    58    0.000000    0.000000    0.000000   -0.000000    0.000000
  |    59    0.000007    0.000000    0.000001    0.000007   -0.000000
  |    60    0.000000    0.000000    0.000000   -0.000000    0.000000
  |    61    0.000000    0.000000    0.000000   -0.000000    0.000000
  |    62   -0.000001   -0.000000   -0.000000   -0.000001   -0.000000
  |    63    0.000001    0.000000    0.000001   -0.000000   -0.000000
  |    64    0.000001    0.000000    0.000001   -0.000000   -0.000000
  |    65    0.000009    0.000000    0.000001    0.000008   -0.000000
  |    66   -0.000001   -0.000000   -0.000001    0.000000    0.000000
  |    67   -0.000001   -0.000000   -0.000001    0.000000    0.000000
  |    68   -0.000001   -0.000000   -0.000000   -0.000001   -0.000000
  |    69    0.000001    0.000000    0.000001   -0.000000   -0.000000
  |    70    0.000001    0.000000    0.000001   -0.000000   -0.000000
  |    71    0.000008    0.000000    0.000001    0.000007   -0.000000
  |    72    0.000000    0.000000    0.000000   -0.000000    0.000000
  |    73    0.000000    0.000000    0.000000   -0.000000    0.000000
  |
  | Total    0.000000
 
  Calculating angular momentum projected density of states ...
  | Chemical potential is  -5.174777 eV.
  | writing   projected DOS (shifted by the chemical potential) for species Se to file Se_l_proj_dos_tetrahedron.dat.
  | writing   projected DOS (raw data) for species Se to file Se_l_proj_dos_tetrahedron_raw.dat.
  | writing   projected DOS (shifted by the chemical potential) for species S to file S_l_proj_dos_tetrahedron.dat.
  | writing   projected DOS (raw data) for species S to file S_l_proj_dos_tetrahedron_raw.dat.
  | writing   projected DOS (shifted by the chemical potential) for species Mo to file Mo_l_proj_dos_tetrahedron.dat.
  | writing   projected DOS (raw data) for species Mo to file Mo_l_proj_dos_tetrahedron_raw.dat.
  | writing   projected DOS (shifted by the chemical potential) for species W to file W_l_proj_dos_tetrahedron.dat.
  | writing   projected DOS (raw data) for species W to file W_l_proj_dos_tetrahedron_raw.dat.

  Mulliken analysis                                       :  max(cpu_time)    wall_clock(cpu1)
  | Time for Mulliken analysis (scalar relativistic)      :          0.730               0.802
  | Time for Mulliken analysis (spin-orbit coupled)       :          1.773               1.783
  | Total time for Mulliken analysis                      :          2.503               2.585
------------------------------------------------------------

------------------------------------------------------------------------------
  Final output of selected total energy values:

  The following output summarizes some interesting total energy values
  at the end of a run (AFTER all relaxation, molecular dynamics, etc.).

  | Total energy of the DFT / Hartree-Fock s.c.f. calculation      :       -5975290.681283474 eV
  | Final zero-broadening corrected energy (caution - metals only) :       -5975290.681283474 eV
  | Total energy after non-SC SOC correction (DO NOT USE)          :       -5975294.610747389 eV
  | For reference only, the value of 1 Hartree used in FHI-aims is :             27.211384500 eV
  | For reference only, the overall average (free atom contribution
  | + realspace contribution) of the electrostatic potential after
  | s.c.f. convergence is                                          :             -1.199879530 eV

  Before relying on these values, please be sure to understand exactly which
  total energy value is referred to by a given number. Different objects may
  all carry the same name 'total energy'. Definitions:

  Total energy of the DFT / Hartree-Fock s.c.f. calculation:
  | Note that this energy does not include ANY quantities calculated after the
  | s.c.f. cycle, in particular not ANY RPA, MP2, etc. many-body perturbation terms.

  Final zero-broadening corrected energy:
  | For metallic systems only, a broadening of the occupation numbers at the Fermi
  | level can be extrapolated back to zero broadening by an electron-gas inspired
  | formula. For all systems that are not real metals, this value can be
  | meaningless and should be avoided.

------------------------------------------------------------------------------
  Methods described in the following list of references were used in this FHI-aims run.
  If you publish the results, please make sure to cite these reference if they apply.
  FHI-aims is an academic code, and for our developers (often, Ph.D. students
  and postdocs), scientific credit in the community is essential.
  Thank you for helping us!

  For any use of FHI-aims, please cite:

    Volker Blum, Ralf Gehrke, Felix Hanke, Paula Havu, Ville Havu,
    Xinguo Ren, Karsten Reuter, and Matthias Scheffler
    'Ab initio molecular simulations with numeric atom-centered orbitals'
    Computer Physics Communications 180, 2175-2196 (2009)
    http://doi.org/10.1016/j.cpc.2009.06.022


  For Hartree-Fock, hybrid functionals, or many-body perturbation theory used in your run, please cite:

    Xinguo Ren, Patrick Rinke, Volker Blum, Juergen Wieferink, Alex Tkatchenko,
    Andrea Sanfilippo, Karsten Reuter, and Matthias Scheffler,
    'Resolution-of-identity approach to Hartree-Fock, hybrid density functionals,
    RPA, MP2, and GW with numeric atom-centered orbital basis functions'
    New Journal of Physics 14, 053020 (2012).
    http://doi.org/10.1088/1367-2630/14/5/053020


  The provided symmetry information was generated with SPGlib:

    Atsushi Togo, Yusuke Seto, Dimitar Pashov
    SPGlib 1.7.3 obtained from http://spglib.sourceforge.net
    Copyright (C) 2008 Atsushi Togo


  For second-variational spin-orbit coupling used in your run, please cite:

    William P. Huhn and Volker Blum,
    'One-hundred-three compound band-structure benchmark of post-self-consistent'
    'spin-orbit coupling treatments in density functional theory'
    Phys. Rev. Materials 1, 033803 (2017).


  The ELSI infrastructure was used in your run to solve the Kohn-Sham electronic structure.
  Please check out http://elsi-interchange.org to learn more.
  If scalability is important for your project, please acknowledge ELSI by citing:

    V. W-z. Yu, F. Corsetti, A. Garcia, W. P. Huhn, M. Jacquelin, W. Jia,
    B. Lange, L. Lin, J. Lu, W. Mi, A. Seifitokaldani, A. Vazquez-Mayagoitia,
    C. Yang, H. Yang, and V. Blum
    'ELSI: A unified software interface for Kohn-Sham electronic structure solvers'
    Computer Physics Communications 222, 267-285 (2018).
    http://doi.org/10.1016/j.cpc.2017.09.007


  For the real-space grid partitioning and parallelization used in this calculation, please cite:

    Ville Havu, Volker Blum, Paula Havu, and Matthias Scheffler,
    'Efficient O(N) integration for all-electron electronic structure calculation'
    'using numerically tabulated basis functions'
    Journal of Computational Physics 228, 8367-8379 (2009).
    http://doi.org/10.1016/j.jcp.2009.08.008


  The high-level electronic structure method used in your calculation
  employed our efficient localized resolution of identity for the Coulomb operator.
  Some calculations, especially large-scale hybrid density functional theory,
  are only possible thanks to this development. For this feature, please cite:

    Arvid Ihrig, Juergen Wieferink, Igor Ying Zhang, Matti Ropo, Xinguo Ren,
    Patrick Rinke, Matthias Scheffler, and Volker Blum,
    'Accurate localized resolution of identity approach for linear-scaling
    hybrid density functionals and for many-body perturbation theory'
    New Journal of Physics 117, 093020 (2015).
    http://doi.org/10.1088/1367-2630/17/9/093020

  Of course, there are many other important community references, e.g., those cited in the
  above references. Our list is limited to references that describe implementations in the
  FHI-aims code. The reason is purely practical (length of this list) - please credit others as well.

------------------------------------------------------------
          Leaving FHI-aims.
          Date     :  20220930, Time     :  153357.498

          Computational steps:
          | Number of self-consistency cycles          :           31
          | Number of SCF (re)initializations          :            1

          Detailed time accounting                     :  max(cpu_time)    wall_clock(cpu1)
          | Total time                                  :     2932.608 s        2932.789 s
          | Preparation time                            :        1.361 s           1.361 s
          | Boundary condition initalization            :        0.941 s           0.942 s
          | Grid partitioning                           :        2.624 s           2.625 s
          | Preloading free-atom quantities on grid     :        1.605 s           1.607 s
          | Free-atom superposition energy              :        0.053 s           0.053 s
          | Total time for integrations                 :       43.205 s          43.205 s
          | Product basis setup: Total time             :      160.701 s         160.707 s
          | Total time evaluating exchange matrix       :     2429.807 s        2428.951 s
          | Total time for solution of K.-S. equations  :      135.226 s         135.229 s
          | Total time for density update               :       93.582 s          93.580 s
          | Total time for mixing                       :        0.264 s           0.260 s
          | Total time for Hartree multipole update     :        0.397 s           0.396 s
          | Total time for Hartree multipole sum        :       41.774 s          41.772 s
          | Total time for total energy evaluation      :        0.081 s           0.089 s
          | Total time for scaled ZORA corrections      :        0.000 s           0.000 s
          | Total time for vdW correction               :        4.666 s           4.668 s
          | Total time for perturbative SOC             :       14.412 s          14.413 s
          | Total time for Mulliken analysis            :        2.550 s           2.585 s

          Partial memory accounting:
          | Residual value for overall tracked memory usage across tasks:     0.000000 MB (should be 0.000000 MB)
          | Peak values for overall tracked memory usage:
          |   Minimum:      323.824 MB (on task  53 after allocating potential_shell)
          |   Maximum:      469.724 MB (on task 258 after allocating potential_shell)
          |   Average:      374.439 MB
          | Largest tracked array allocation:
          |   Minimum:       77.183 MB (soc_matrix on task   4)
          |   Maximum:      205.855 MB (ovlp3fn for atom on task 258)
          |   Average:      114.807 MB
          Note:  These values currently only include a subset of arrays which are explicitly tracked.
          The "true" memory usage will be greater.

          Have a nice day.
------------------------------------------------------------
