------------------------------------------------------------
          Invoking FHI-aims ...

          When using FHI-aims, please cite the following reference:

            Volker Blum, Ralf Gehrke, Felix Hanke, Paula Havu,
            Ville Havu, Xinguo Ren, Karsten Reuter, and Matthias Scheffler,
            'Ab Initio Molecular Simulations with Numeric Atom-Centered Orbitals',
            Computer Physics Communications 180, 2175-2196 (2009)

          In addition, many other developments in FHI-aims are likely important for
          your particular application. A partial list of references is given at the end of
          this file. Thank you for giving credit to the authors of these developments.

          For any questions about FHI-aims, please visit our slack channel at

            https://fhi-aims.slack.com

          and our main development and support site at

            https://aims-git.rz-berlin.mpg.de .

          The latter site, in particular, has a wiki to collect information, as well
          as an issue tracker to log discussions, suggest improvements, and report issues
          or bugs. https://aims-git.rz-berlin.mpg.de is also the main development site
          of the project and all new and updated code versions can be obtained there.
          Please send an email to aims-coordinators@fhi-berlin.mpg.de and we will add
          you to these sites. They are for you and everyone is welcome there.

------------------------------------------------------------



  Date     :  20220916, Time     :  122417.538
  Time zero on CPU 1             :   0.325590100000000E+01  s.
  Internal wall clock time zero  :           432563057.538  s.

  FHI-aims created a unique identifier for this run for later identification
  aims_uuid : 111AA49B-2EE0-45F6-AD41-5AB97F56630D

  Build configuration of the current instance of FHI-aims
  -------------------------------------------------------
  FHI-aims version      : 220117
  Commit number         : 0c0e6afe2
  CMake host system     : Linux-5.3.18-24.99-default
  CMake version         : 3.22.0
  Fortran compiler      : /mpcdf/soft/SLE_15/packages/x86_64/intel_oneapi/2021.4/mpi/2021.4.0/bin/mpiifort (Intel) version 2021.4.0.20210910
  Fortran compiler flags: -O3 -ip -fp-model precise
  C compiler            : /mpcdf/soft/SLE_15/packages/x86_64/intel/2021.4.0/bin/icc (Intel) version 2021.4.0.20210910
  C compiler flags      : -O3 -ip -fp-model precise
  C++ compiler          : /mpcdf/soft/SLE_15/packages/x86_64/intel/2021.4.0/bin/icpc (Intel) version 2021.4.0.20210910
  C++ compiler flags    : -O3 -ip -fp-model precise
  Using MPI
  Using ScaLAPACK
  Using LibXC
  Using i-PI
  Using RLSY
  Linking against: /mpcdf/soft/SLE_15/packages/x86_64/intel_oneapi/2021.4/mkl/latest/lib/intel64/libmkl_intel_lp64.so
                   /mpcdf/soft/SLE_15/packages/x86_64/intel_oneapi/2021.4/mkl/latest/lib/intel64/libmkl_sequential.so
                   /mpcdf/soft/SLE_15/packages/x86_64/intel_oneapi/2021.4/mkl/latest/lib/intel64/libmkl_core.so
                   /mpcdf/soft/SLE_15/packages/x86_64/intel_oneapi/2021.4/mkl/latest/lib/intel64/libmkl_blacs_intelmpi_lp64.so
                   /mpcdf/soft/SLE_15/packages/x86_64/intel_oneapi/2021.4/mkl/latest/lib/intel64/libmkl_scalapack_lp64.so

  Using      216 parallel tasks.
  Task        0 on host ravg1109 reporting.
  Task        1 on host ravg1109 reporting.
  Task        2 on host ravg1109 reporting.
  Task        3 on host ravg1109 reporting.
  Task        4 on host ravg1109 reporting.
  Task        5 on host ravg1109 reporting.
  Task        6 on host ravg1109 reporting.
  Task        7 on host ravg1109 reporting.
  Task        8 on host ravg1109 reporting.
  Task        9 on host ravg1109 reporting.
  Task       10 on host ravg1109 reporting.
  Task       11 on host ravg1109 reporting.
  Task       12 on host ravg1109 reporting.
  Task       13 on host ravg1109 reporting.
  Task       14 on host ravg1109 reporting.
  Task       15 on host ravg1109 reporting.
  Task       16 on host ravg1109 reporting.
  Task       17 on host ravg1109 reporting.
  Task       18 on host ravg1109 reporting.
  Task       19 on host ravg1109 reporting.
  Task       20 on host ravg1109 reporting.
  Task       21 on host ravg1109 reporting.
  Task       22 on host ravg1109 reporting.
  Task       23 on host ravg1109 reporting.
  Task       24 on host ravg1109 reporting.
  Task       25 on host ravg1109 reporting.
  Task       26 on host ravg1109 reporting.
  Task       27 on host ravg1109 reporting.
  Task       28 on host ravg1109 reporting.
  Task       29 on host ravg1109 reporting.
  Task       30 on host ravg1109 reporting.
  Task       31 on host ravg1109 reporting.
  Task       32 on host ravg1109 reporting.
  Task       33 on host ravg1109 reporting.
  Task       34 on host ravg1109 reporting.
  Task       35 on host ravg1109 reporting.
  Task       36 on host ravg1109 reporting.
  Task       37 on host ravg1109 reporting.
  Task       38 on host ravg1109 reporting.
  Task       39 on host ravg1109 reporting.
  Task       40 on host ravg1109 reporting.
  Task       41 on host ravg1109 reporting.
  Task       42 on host ravg1109 reporting.
  Task       43 on host ravg1109 reporting.
  Task       44 on host ravg1109 reporting.
  Task       45 on host ravg1109 reporting.
  Task       46 on host ravg1109 reporting.
  Task       47 on host ravg1109 reporting.
  Task       48 on host ravg1109 reporting.
  Task       49 on host ravg1109 reporting.
  Task       50 on host ravg1109 reporting.
  Task       51 on host ravg1109 reporting.
  Task       52 on host ravg1109 reporting.
  Task       53 on host ravg1109 reporting.
  Task       54 on host ravg1109 reporting.
  Task       55 on host ravg1109 reporting.
  Task       56 on host ravg1109 reporting.
  Task       57 on host ravg1109 reporting.
  Task       58 on host ravg1109 reporting.
  Task       59 on host ravg1109 reporting.
  Task       60 on host ravg1109 reporting.
  Task       61 on host ravg1109 reporting.
  Task       62 on host ravg1109 reporting.
  Task       63 on host ravg1109 reporting.
  Task       64 on host ravg1109 reporting.
  Task       65 on host ravg1109 reporting.
  Task       66 on host ravg1109 reporting.
  Task       67 on host ravg1109 reporting.
  Task       68 on host ravg1109 reporting.
  Task       69 on host ravg1109 reporting.
  Task       70 on host ravg1109 reporting.
  Task       71 on host ravg1109 reporting.
  Task       72 on host ravg1110 reporting.
  Task       73 on host ravg1110 reporting.
  Task       74 on host ravg1110 reporting.
  Task       75 on host ravg1110 reporting.
  Task       76 on host ravg1110 reporting.
  Task       77 on host ravg1110 reporting.
  Task       78 on host ravg1110 reporting.
  Task       79 on host ravg1110 reporting.
  Task       80 on host ravg1110 reporting.
  Task       81 on host ravg1110 reporting.
  Task       82 on host ravg1110 reporting.
  Task       83 on host ravg1110 reporting.
  Task       84 on host ravg1110 reporting.
  Task       85 on host ravg1110 reporting.
  Task       86 on host ravg1110 reporting.
  Task       87 on host ravg1110 reporting.
  Task       88 on host ravg1110 reporting.
  Task       89 on host ravg1110 reporting.
  Task       90 on host ravg1110 reporting.
  Task       91 on host ravg1110 reporting.
  Task       92 on host ravg1110 reporting.
  Task       93 on host ravg1110 reporting.
  Task       94 on host ravg1110 reporting.
  Task       95 on host ravg1110 reporting.
  Task       96 on host ravg1110 reporting.
  Task       97 on host ravg1110 reporting.
  Task       98 on host ravg1110 reporting.
  Task       99 on host ravg1110 reporting.
  Task      100 on host ravg1110 reporting.
  Task      101 on host ravg1110 reporting.
  Task      102 on host ravg1110 reporting.
  Task      103 on host ravg1110 reporting.
  Task      104 on host ravg1110 reporting.
  Task      105 on host ravg1110 reporting.
  Task      106 on host ravg1110 reporting.
  Task      107 on host ravg1110 reporting.
  Task      108 on host ravg1110 reporting.
  Task      109 on host ravg1110 reporting.
  Task      110 on host ravg1110 reporting.
  Task      111 on host ravg1110 reporting.
  Task      112 on host ravg1110 reporting.
  Task      113 on host ravg1110 reporting.
  Task      114 on host ravg1110 reporting.
  Task      115 on host ravg1110 reporting.
  Task      116 on host ravg1110 reporting.
  Task      117 on host ravg1110 reporting.
  Task      118 on host ravg1110 reporting.
  Task      119 on host ravg1110 reporting.
  Task      120 on host ravg1110 reporting.
  Task      121 on host ravg1110 reporting.
  Task      122 on host ravg1110 reporting.
  Task      123 on host ravg1110 reporting.
  Task      124 on host ravg1110 reporting.
  Task      125 on host ravg1110 reporting.
  Task      126 on host ravg1110 reporting.
  Task      127 on host ravg1110 reporting.
  Task      128 on host ravg1110 reporting.
  Task      129 on host ravg1110 reporting.
  Task      130 on host ravg1110 reporting.
  Task      131 on host ravg1110 reporting.
  Task      132 on host ravg1110 reporting.
  Task      133 on host ravg1110 reporting.
  Task      134 on host ravg1110 reporting.
  Task      135 on host ravg1110 reporting.
  Task      136 on host ravg1110 reporting.
  Task      137 on host ravg1110 reporting.
  Task      138 on host ravg1110 reporting.
  Task      139 on host ravg1110 reporting.
  Task      140 on host ravg1110 reporting.
  Task      141 on host ravg1110 reporting.
  Task      142 on host ravg1110 reporting.
  Task      143 on host ravg1110 reporting.
  Task      144 on host ravg1111 reporting.
  Task      145 on host ravg1111 reporting.
  Task      146 on host ravg1111 reporting.
  Task      147 on host ravg1111 reporting.
  Task      148 on host ravg1111 reporting.
  Task      149 on host ravg1111 reporting.
  Task      150 on host ravg1111 reporting.
  Task      151 on host ravg1111 reporting.
  Task      152 on host ravg1111 reporting.
  Task      153 on host ravg1111 reporting.
  Task      154 on host ravg1111 reporting.
  Task      155 on host ravg1111 reporting.
  Task      156 on host ravg1111 reporting.
  Task      157 on host ravg1111 reporting.
  Task      158 on host ravg1111 reporting.
  Task      159 on host ravg1111 reporting.
  Task      160 on host ravg1111 reporting.
  Task      161 on host ravg1111 reporting.
  Task      162 on host ravg1111 reporting.
  Task      163 on host ravg1111 reporting.
  Task      164 on host ravg1111 reporting.
  Task      165 on host ravg1111 reporting.
  Task      166 on host ravg1111 reporting.
  Task      167 on host ravg1111 reporting.
  Task      168 on host ravg1111 reporting.
  Task      169 on host ravg1111 reporting.
  Task      170 on host ravg1111 reporting.
  Task      171 on host ravg1111 reporting.
  Task      172 on host ravg1111 reporting.
  Task      173 on host ravg1111 reporting.
  Task      174 on host ravg1111 reporting.
  Task      175 on host ravg1111 reporting.
  Task      176 on host ravg1111 reporting.
  Task      177 on host ravg1111 reporting.
  Task      178 on host ravg1111 reporting.
  Task      179 on host ravg1111 reporting.
  Task      180 on host ravg1111 reporting.
  Task      181 on host ravg1111 reporting.
  Task      182 on host ravg1111 reporting.
  Task      183 on host ravg1111 reporting.
  Task      184 on host ravg1111 reporting.
  Task      185 on host ravg1111 reporting.
  Task      186 on host ravg1111 reporting.
  Task      187 on host ravg1111 reporting.
  Task      188 on host ravg1111 reporting.
  Task      189 on host ravg1111 reporting.
  Task      190 on host ravg1111 reporting.
  Task      191 on host ravg1111 reporting.
  Task      192 on host ravg1111 reporting.
  Task      193 on host ravg1111 reporting.
  Task      194 on host ravg1111 reporting.
  Task      195 on host ravg1111 reporting.
  Task      196 on host ravg1111 reporting.
  Task      197 on host ravg1111 reporting.
  Task      198 on host ravg1111 reporting.
  Task      199 on host ravg1111 reporting.
  Task      200 on host ravg1111 reporting.
  Task      201 on host ravg1111 reporting.
  Task      202 on host ravg1111 reporting.
  Task      203 on host ravg1111 reporting.
  Task      204 on host ravg1111 reporting.
  Task      205 on host ravg1111 reporting.
  Task      206 on host ravg1111 reporting.
  Task      207 on host ravg1111 reporting.
  Task      208 on host ravg1111 reporting.
  Task      209 on host ravg1111 reporting.
  Task      210 on host ravg1111 reporting.
  Task      211 on host ravg1111 reporting.
  Task      212 on host ravg1111 reporting.
  Task      213 on host ravg1111 reporting.
  Task      214 on host ravg1111 reporting.
  Task      215 on host ravg1111 reporting.

  Performing system and environment tests:
  | Environment variable OMP_NUM_THREADS correctly set to 1.
  | Checking for ScaLAPACK...
  | Testing pdtran()...
  | All pdtran() tests passed.

  Obtaining array dimensions for all initial allocations:
  
  -----------------------------------------------------------------------
  Parsing control.in (first pass over file, find array dimensions only).
  The contents of control.in will be repeated verbatim below
  unless switched off by setting 'verbatim_writeout .false.' .
  in the first line of control.in .
  -----------------------------------------------------------------------
  
    ##### Physical settings  ################
    xc                 pbe
    spin               collinear
    default_initial_moment 1
    charge      0.0
    relativistic       atomic_zora scalar
    #elsi_restart read
    # SCF settings
    use_symmetric_forces .true.
    relax_geometry trm 1E-3
  
    # k-grid settings  (to be adjusted)
    k_grid  4 4 1
    #empty_states 8
    use_dipole_correction
    many_body_dispersion_nl    beta=0.81
  ################################################################################
  #
  #  FHI-aims code project
  # Volker Blum, Fritz Haber Institute Berlin, 2009
  #
  #  Suggested "tight" defaults for S atom (to be pasted into control.in file)
  #
  #  Revised Jan 04, 2011, following tests (SiC) done by Lydia Nemec:
  #     d and g functions of tier 2 now enabled by default.
  #
  ################################################################################
    species        S
  #     global species definitions
      nucleus             16
      mass                32.065
  #
      l_hartree           6
  #
      cut_pot             4.0          2.0  1.0
      basis_dep_cutoff    1e-4
  #
      radial_base         44 7.0
      radial_multiplier   2
      angular_grids       specified
        division   0.4665  110
        division   0.5810  194
        division   0.7139  302
        division   0.8274  434
  #      division   0.9105  590
  #      division   1.0975  770
  #      division   1.2028  974
  #      outer_grid  974
        outer_grid  434
  ################################################################################
  #
  #  Definition of "minimal" basis
  #
  ################################################################################
  #     valence basis states
      valence      3  s   2.
      valence      3  p   4.
  #     ion occupancy
      ion_occ      3  s   1.
      ion_occ      3  p   3.
  ################################################################################
  #
  #  Suggested additional basis functions. For production calculations,
  #  uncomment them one after another (the most important basis functions are
  #  listed first).
  #
  #  Constructed for dimers: 1.6 A, 1.9 A, 2.5 A, 3.25 A, 4.0 A
  #
  ################################################################################
  #  "First tier" - improvements: -652.81 meV to -45.53 meV
       ionic 3 d auto
       hydro 2 p 1.8
       hydro 4 f 7
       ionic 3 s auto
  #  "Second tier" - improvements: -30.20 meV to -1.74 meV
       hydro 4 d 6.2
       hydro 5 g 10.8
  #     hydro 4 p 4.9
  #     hydro 5 f 10
  #     hydro 1 s 0.8
  #  "Third tier" - improvements: -1.04 meV to -0.20 meV
  #     hydro 3 d 3.9
  #     hydro 3 d 2.7
  #     hydro 5 g 12
  #     hydro 4 p 10.4
  #     hydro 5 f 12.4
  #     hydro 2 s 1.9
  #  "Fourth tier" - improvements: -0.35 meV to -0.06 meV
  #     hydro 4 d 10.4
  #     hydro 4 p 7.2
  #     hydro 4 d 10
  #     hydro 5 g 19.2
  #     hydro 4 s 12
  
  ################################################################################
  #
  # For methods that use the localized form of the "resolution of identity" for
  # the two-electron Coulomb operator (RI_method LVL), particularly Hartree-Fock and
  # hybrid density functional calculations, the highest accuracy can be obtained by
  # uncommenting the line beginning with "for_aux"  below, thus adding an extra g radial
  # function to the construction of the product basis set for the expansion.
  # See Ref. New J. Phys. 17, 093020 (2015) for more information, particularly Figs. 1 and 6.
  #
  ################################################################################
  #
  # for_aux hydro 5 g 6.0
  ################################################################################
  #
  #  FHI-aims code project
  # Volker Blum, Fritz Haber Institute Berlin, 2009
  #
  #  Suggested "tight" defaults for Mo atom (to be pasted into control.in file)
  #
  ################################################################################
    species        Mo
  #     global species definitions
      nucleus             42
      mass                95.94
  #
      l_hartree           6
  #
      cut_pot             4.0  2.0  1.0
      basis_dep_cutoff    1e-4
  #
      radial_base         59 7.0
      radial_multiplier   2
      angular_grids specified
        division   0.3117   50
        division   0.6750  110
        division   1.0351  194
        division   1.2073  302
        division   1.6402  434
  #      division   1.9185  590
  #      division   2.0237  770
  #      division   2.0980  974
  #      division   2.7972 1202
  #      outer_grid  974
        outer_grid  434
  ################################################################################
  #
  #  Definition of "minimal" basis
  #
  ################################################################################
  #     valence basis states
      valence      5  s   1.
      valence      4  p   6.
      valence      4  d   5.
  #     ion occupancy
      ion_occ     5  s   0.
      ion_occ     4  p   6.
      ion_occ     4  d   4.
  ################################################################################
  #
  #  Suggested additional basis functions. For production calculations,
  #  uncomment them one after another (the most important basis functions are
  #  listed first).
  #
  #  Constructed for dimers: 1.675 A, 1.9 A, 2.375 A, 3.00 A, 4.00 A
  #
  ################################################################################
  #  "First tier"  - max. impr. -711.23  meV, min. impr. -21.07 meV
       hydro 4 f 8.4
       hydro 3 d 2.8
       ionic 5 p auto
       hydro 5 g 12
       ionic 5 s auto
  #  "Second tier" - max. impr. -39.38  meV, min. impr. -2.68 meV
  #     hydro 4 f 12.4
  #     hydro 3 d 3.3
  #     hydro 6 h 17.2
  #     hydro 4 f 7.6
  #     hydro 3 p 3.0
  #     hydro 1 s 0.65
  #  "Third tier"  - max. impr. -5.50 meV, min. impr. -0.47 meV
  #     hydro 4 f 29.2
  #     hydro 5 g 11.2
  #     hydro 3 d 6.8
  #     hydro 6 h 14.8
  #     hydro 2 p 2.3
  #     hydro 4 s 3.8
  #  "Fourth tier"  - max. impr. -0.58 meV, min. impr. -0.19 meV
  #     hydro 5 f 6.8
  #     hydro 5 d 14.8
  #     hydro 6 s 7.8
  #     hydro 5 g 20.8
  #     hydro 5 d 10.4
  #     hydro 5 p 9.8
  #  Further functions - -0.17 meV and below
  #     hydro 5 d 3.2
  ################################################################################
  #
  #  FHI-aims code project
  # Volker Blum, Fritz Haber Institute Berlin, 2009
  #
  #  Suggested "tight" defaults for W atom (to be pasted into control.in file)
  #
  ################################################################################
    species          W
  #     global species definitions
      nucleus        74
      mass           183.84
  #
      l_hartree      6
  #
      cut_pot        4.0  2.0  1.0
      basis_dep_cutoff    1e-4
  #
      radial_base    71  7.0
      radial_multiplier  2
      angular_grids specified
        division   0.2901   50
        division   0.6986  110
        division   1.0528  194
        division   1.2659  302
        division   1.5223  434
  #      division   1.8111  590
  #      division   2.0105  770
  #      division   2.0413  974
  #      division   2.8804 1202
  #      outer_grid  974
        outer_grid  434
  ################################################################################
  #
  #  Definition of "minimal" basis
  #
  ################################################################################
  #     valence basis states
      valence      6  s   2.
      valence      5  p   6.
      valence      5  d   4.
      valence      4  f  14.
  #     ion occupancy
      ion_occ      6  s   1.
      ion_occ      5  p   6.
      ion_occ      5  d   3.
      ion_occ      4  f  14.
  ################################################################################
  #
  #  Suggested additional basis functions. For production calculations,
  #  uncomment them one after another (the most important basis functions are
  #  listed first).
  #
  #  Constructed for dimers: 1.775, 1.99, 2.50, 3.25, 4.50 AA
  #
  ################################################################################
  #
  #  "First tier" - improvements: -603.77 meV to -28.99 meV
       hydro 4 f 7.8
       hydro 4 d 5.8
       ionic 6 p auto
       hydro 5 g 12.4
       ionic 6 s auto
  #  "Second tier" - improvements: -28.30 meV to -1.31 meV
  #     hydro 6 h 16.8
  #     ionic 5 d auto
  #     hydro 4 f 8.6
  #     hydro 5 g 16.8
  #     hydro 5 d 8.4
  #     hydro 3 p 3.3
  #     hydro 1 s 0.55
  #  "Third tier" - max. impr. -1.79 meV, min. impr. -0.26 meV
  #     hydro 5 f 10.8
  #     hydro 5 g 34.4
  #     hydro 6 h 20.8
  #     hydro 5 g 12.8
  #     hydro 2 p 1.6
  #     hydro 4 s 4.7
  #     hydro 6 d 18.4
  #  "Fourth tier" -0.46 max. impr. - meV, min. impr. -0.09 meV
  #     hydro 6 h 21.6
  #     hydro 5 f 22.4
  #     hydro 4 f 4
  #     hydro 5 p 9.6
  #     hydro 6 d 17.2
  #     hydro 3 p 5.2
  #     hydro 5 g 4.7
  #     hydro 6 s 7.6
  ################################################################################
  #
  #  FHI-aims code project
  # Volker Blum, Fritz Haber Institute Berlin, 2009
  #
  #  Suggested "tight" defaults for Se atom (to be pasted into control.in file)
  #
  ################################################################################
    species        Se
  #     global species definitions
      nucleus             34
      mass                78.96
  #
      l_hartree           6
  #
      cut_pot             4.0          2.0  1.0
      basis_dep_cutoff    1e-4
  #
      radial_base         55 7.0
      radial_multiplier   2
      angular_grids       specified
        division   0.0830  110
        division   0.1357  194
        division   0.7377  302
        division   0.8610  434
  #      division   0.9640  590
  #      division   1.0773  770
  #      division   2.5539  974
  #      outer_grid  974
        outer_grid  434
  ################################################################################
  #
  #  Definition of "minimal" basis
  #
  ################################################################################
  #     valence basis states
      valence      4  s   2.
      valence      4  p   4.
      valence      3  d  10.
  #     ion occupancy
      ion_occ      4  s   1.
      ion_occ      4  p   3.
      ion_occ      3  d  10.
  ################################################################################
  #
  #  Suggested additional basis functions. For production calculations,
  #  uncomment them one after another (the most important basis functions are
  #  listed first).
  #
  #  Constructed for dimers: 1.85 A, 2.15 A, 2.50 A, 3.00 A, 4.00 A
  #
  ################################################################################
  #  "First tier" - improvements: -336.21 meV to -36.85 meV
       hydro 3 d 4.3
       hydro 2 p 1.6
       hydro 4 f 7.2
       ionic 4 s auto
  #  "Second tier" - improvements: -14.39 meV to -1.49 meV
  #     hydro 5 g 10.4
  #     hydro 4 p 4.5
  #     hydro 4 d 6.2
  #     hydro 4 f 11.2
  #     hydro 1 s 0.65
  #     hydro 6 h 15.2
  #  "Third tier" - improvements: -0.46 meV and below
  #     hydro 5 g 14.4
  #     ionic 4 d auto
  #     hydro 4 f 22.4
  #     hydro 5 f 7.4
  #     hydro 5 p 8
  #     hydro 5 s 9.4
  #  "Fourth tier" - improvements: -0.12 meV and below
  #     hydro 5 d 11.6
  #     hydro 6 h 18
  #     hydro 4 p 4
  #     hydro 5 f 16
  #     hydro 4 s 3.9
  
  
  
  -----------------------------------------------------------------------
  Completed first pass over input file control.in .
  -----------------------------------------------------------------------
  
  
  -----------------------------------------------------------------------
  Parsing geometry.in (first pass over file, find array dimensions only).
  The contents of geometry.in will be repeated verbatim below
  unless switched off by setting 'verbatim_writeout .false.' .
  in the first line of geometry.in .
  -----------------------------------------------------------------------
  
  #
  # This is the geometry file that corresponds to the current relaxation step.
  # If you do not want this file to be written, set the "write_restart_geometry" flag to .false.
  #  aims_uuid : 7CCB0A5E-8A7B-439E-AB74-499412DD5678
  #
    set_vacuum_level        52.568975
  lattice_vector     15.80931190      0.00000000      0.00000000
  lattice_vector     -7.90633915     13.69010115      0.00000000
  lattice_vector      0.00000000      0.00000000     99.93885963
  atom       0.00054871      0.91415886      2.59884809 W
  atom       1.58430266      1.81190197      4.17302289 S
  atom       1.58416906      1.81136239      1.02425190 S
  atom      -1.55931025      3.67170943      2.59873329 W
  atom       0.03848954      4.59402817      4.16020669 S
  atom       0.03815120      4.59401084      1.03678903 S
  atom      -3.16819529      6.40091556      2.59892552 W
  atom      -1.59901276      7.32354493      4.17328017 S
  atom      -1.59928441      7.32371555      1.02443547 S
  atom      -4.73545593      9.14339815      2.59901995 W
  atom      -3.16173507     10.05667559      4.18139361 S
  atom      -3.16177065     10.05664354      1.01656441 S
  atom      -6.31367509     11.87614178      2.59898594 W
  atom      -4.73584124     12.78242776      4.18130263 S
  atom      -4.73586699     12.78220797      1.01648716 S
  atom       3.17026871      0.90615923      2.59873939 W
  atom       4.75610266      1.81164347      4.17317473 S
  atom       4.75626039      1.81143479      1.02432659 S
  atom       1.63052569      3.64322751      2.59824078 W
  atom       3.16998639      4.52781202      4.17024995 S
  atom       3.16995266      4.52635069      1.02566728 S
  atom       0.01040508      6.44816078      2.59857849 W
  atom       1.54570265      7.33928242      4.17121225 S
  atom       1.54559825      7.33928714      1.02661581 S
  atom      -1.59065308      9.14975507      2.59896698 W
  atom      -0.01367874     10.07041278      4.17350881 S
  atom      -0.01343019     10.07030459      1.02461730 S
  atom      -3.15791249     11.87615410      2.59894776 W
  atom      -1.57791315     12.78834190      4.18074897 S
  atom      -1.57782721     12.78823748      1.01716495 S
  atom       6.33998927      0.91416212      2.59889509 W
  atom       7.91206798      1.84308404      4.17648615 S
  atom       7.91215165      1.84310089      1.02143897 S
  atom       4.70946029      3.64307214      2.59864629 W
  atom       6.30137897      4.59375926      4.16072108 S
  atom       6.30152738      4.59406138      1.03729178 S
  atom       4.79391352      7.33948188      4.17236135 S
  atom       4.79259106      7.33868433      1.02776351 S
  atom       1.54952537      9.11442348      2.59930879 W
  atom       3.16901799     10.01761208      4.16113443 S
  atom       3.16920445     10.01732465      1.03772355 S
  atom       0.00081802     11.89052167      2.59901945 W
  atom       1.59141047     12.78748571      4.17657795 S
  atom       1.59155479     12.78735553      1.02158198 S
  atom       9.49388697      0.92575499      2.59900341 W
  atom      11.07485779      1.83846705      4.17613912 S
  atom      11.07483111      1.83841363      1.02181819 S
  atom       7.89921029      3.67162597      2.59899498 W
  atom       9.48914725      4.57485212      4.17652753 S
  atom       9.48910101      4.57494059      1.02149351 S
  atom       6.32867695      6.44804876      2.59937594 W
  atom       7.93822920      7.32353876      4.17366302 S
  atom       7.93792567      7.32356154      1.02481869 S
  atom       4.78875537      9.11421983      2.59971572 W
  atom       6.35190992     10.07043819      4.17372394 S
  atom       6.35153299     10.07004306      1.02494456 S
  atom       3.16888964     11.86218436      2.59921490 W
  atom       4.74618873     12.78750961      4.17660190 S
  atom       4.74610554     12.78730561      1.02160996 S
  atom      12.65594474      0.92575667      2.59897775 W
  atom      14.23766988      1.84324651      4.17634110 S
  atom      14.23752664      1.84305026      1.02136068 S
  atom      11.07458050      3.66393236      2.59895698 W
  atom      12.66000816      4.57489830      4.17637752 S
  atom      12.65980674      4.57495594      1.02136903 S
  atom       9.50728375      6.40085796      2.59907683 W
  atom      11.07420161      7.31897181      4.18079209 S
  atom      11.07403891      7.31899534      1.01721705 S
  atom       7.92904522      9.14968143      2.59924414 W
  atom       9.50007841     10.05669573      4.18148338 S
  atom       9.49987913     10.05655799      1.01667494 S
  atom       6.33692171     11.89047998      2.59912187 W
  atom       7.91555496     12.78841845      4.18078038 S
  atom       7.91540840     12.78815579      1.01719133 S
  #
  # What follows is the current estimated Hessian matrix constructed by the BFGS algorithm.
  # This is NOT the true Hessian matrix of the system.
  # If you do not want this information here, switch it off using the "hessian_to_restart_geometry" keyword.
  #
  trust_radius             0.0003793754
  hessian_file
  
  -----------------------------------------------------------------------
  Completed first pass over input file geometry.in .
  -----------------------------------------------------------------------
  

  Basic array size parameters:
  | Number of species                 :        4
  | Number of atoms                   :       74
  | Number of lattice vectors         :        3
  | Max. basis fn. angular momentum   :        4
  | Max. atomic/ionic basis occupied n:        6
  | Max. number of basis fn. types    :        3
  | Max. radial fns per species/type  :       14
  | Max. logarithmic grid size        :     1483
  | Max. radial integration grid size :      143
  | Max. angular integration grid size:      434
  | Max. angular grid division number :        8
  | Radial grid for Hartree potential :     1483
  | Number of spin channels           :        2

------------------------------------------------------------
          Reading file control.in.
------------------------------------------------------------
  XC: Using PBE gradient-corrected functionals.
  Spin treatment: Spin density functional theory - collinear spins.
  Initial spin moment per atom:   1.0000
  Charge =   0.000000E+00: Neutral system requested explicitly.
  Scalar relativistic treatment of kinetic energy: on-site free-atom approximation to ZORA.
  Geometry relaxation: Modified BFGS - TRM (trust radius method) for lattice optimization.
  Convergence accuracy for geometry relaxation: Maximum force <   0.100000E-02 eV/A.
  Found k-point grid:         4         4         1
  Using dipole correction.
  Using libMBD for calculating MBD and TS energies
 
  Reading configuration options for species S                   .
  | Found nuclear charge :  16.0000
  | Found atomic mass :    32.0650000000000      amu
  | Found l_max for Hartree potential  :   6
  | Found cutoff potl. onset [A], width [A], scale factor :    4.00000    2.00000    1.00000
  | Threshold for basis-dependent cutoff potential is   0.100000E-03
  | Found data for basic radial integration grid :    44 points, outermost radius =    7.000 A
  | Found multiplier for basic radial grid :   2
  | Found angular grid specification: user-specified.
  | Specified grid contains     5 separate shells.
  | Check grid settings after all constraints further below.
  | Found free-atom valence shell :  3 s   2.000
  | Found free-atom valence shell :  3 p   4.000
  | Found free-ion valence shell :  3 s   1.000
  | Found free-ion valence shell :  3 p   3.000
  | Found ionic basis function :  3 d , default cutoff radius.
  | Found hydrogenic basis function :  2 p   1.800
  | Found hydrogenic basis function :  4 f   7.000
  | Found ionic basis function :  3 s , default cutoff radius.
  | Found hydrogenic basis function :  4 d   6.200
  | Found hydrogenic basis function :  5 g  10.800
  Species S                   : Missing cutoff potential type.
  Defaulting to exp(1/x)/(1-x)^2 type cutoff potential.
  Species S : No 'logarithmic' tag. Using default grid for free atom:
  | Default logarithmic grid data [bohr] : 0.1000E-03 0.1000E+03 0.1012E+01
  | Will include ionic basis functions of  2.0-fold positive S                    ion.
  Species S : On-site basis accuracy parameter (for Gram-Schmidt orthonormalisation) not specified.
  Using default value basis_acc =  0.1000000E-03.
  Species S                   : Using default innermost maximum threshold i_radial=  2 for radial functions.
  Species S                   : Default cutoff onset for free atom density etc. : 0.40000000E+01 AA.
  Species S                   : Basic radial grid will be enhanced according to radial_multiplier =   2, to contain    89 grid points.
 
  Reading configuration options for species Mo                  .
  | Found nuclear charge :  42.0000
  | Found atomic mass :    95.9400000000000      amu
  | Found l_max for Hartree potential  :   6
  | Found cutoff potl. onset [A], width [A], scale factor :    4.00000    2.00000    1.00000
  | Threshold for basis-dependent cutoff potential is   0.100000E-03
  | Found data for basic radial integration grid :    59 points, outermost radius =    7.000 A
  | Found multiplier for basic radial grid :   2
  | Found angular grid specification: user-specified.
  | Specified grid contains     6 separate shells.
  | Check grid settings after all constraints further below.
  | Found free-atom valence shell :  5 s   1.000
  | Found free-atom valence shell :  4 p   6.000
  | Found free-atom valence shell :  4 d   5.000
  | Found free-ion valence shell :  5 s   0.000
  | Found free-ion valence shell :  4 p   6.000
  | Found free-ion valence shell :  4 d   4.000
  | Found hydrogenic basis function :  4 f   8.400
  | Found hydrogenic basis function :  3 d   2.800
  | Found ionic basis function :  5 p , default cutoff radius.
  | Found hydrogenic basis function :  5 g  12.000
  | Found ionic basis function :  5 s , default cutoff radius.
  Species Mo                  : Missing cutoff potential type.
  Defaulting to exp(1/x)/(1-x)^2 type cutoff potential.
  Species Mo: No 'logarithmic' tag. Using default grid for free atom:
  | Default logarithmic grid data [bohr] : 0.1000E-03 0.1000E+03 0.1012E+01
  | Will include ionic basis functions of  2.0-fold positive Mo                   ion.
  Species Mo: On-site basis accuracy parameter (for Gram-Schmidt orthonormalisation) not specified.
  Using default value basis_acc =  0.1000000E-03.
  Species Mo                  : Using default innermost maximum threshold i_radial=  2 for radial functions.
  Species Mo                  : Default cutoff onset for free atom density etc. : 0.40000000E+01 AA.
  Species Mo                  : Basic radial grid will be enhanced according to radial_multiplier =   2, to contain   119 grid points.
 
  Reading configuration options for species W                   .
  | Found nuclear charge :  74.0000
  | Found atomic mass :    183.840000000000      amu
  | Found l_max for Hartree potential  :   6
  | Found cutoff potl. onset [A], width [A], scale factor :    4.00000    2.00000    1.00000
  | Threshold for basis-dependent cutoff potential is   0.100000E-03
  | Found data for basic radial integration grid :    71 points, outermost radius =    7.000 A
  | Found multiplier for basic radial grid :   2
  | Found angular grid specification: user-specified.
  | Specified grid contains     6 separate shells.
  | Check grid settings after all constraints further below.
  | Found free-atom valence shell :  6 s   2.000
  | Found free-atom valence shell :  5 p   6.000
  | Found free-atom valence shell :  5 d   4.000
  | Found free-atom valence shell :  4 f  14.000
  | Found free-ion valence shell :  6 s   1.000
  | Found free-ion valence shell :  5 p   6.000
  | Found free-ion valence shell :  5 d   3.000
  | Found free-ion valence shell :  4 f  14.000
  | Found hydrogenic basis function :  4 f   7.800
  | Found hydrogenic basis function :  4 d   5.800
  | Found ionic basis function :  6 p , default cutoff radius.
  | Found hydrogenic basis function :  5 g  12.400
  | Found ionic basis function :  6 s , default cutoff radius.
  Species W                   : Missing cutoff potential type.
  Defaulting to exp(1/x)/(1-x)^2 type cutoff potential.
  Species W : No 'logarithmic' tag. Using default grid for free atom:
  | Default logarithmic grid data [bohr] : 0.1000E-03 0.1000E+03 0.1012E+01
  | Will include ionic basis functions of  2.0-fold positive W                    ion.
  Species W : On-site basis accuracy parameter (for Gram-Schmidt orthonormalisation) not specified.
  Using default value basis_acc =  0.1000000E-03.
  Species W                   : Using default innermost maximum threshold i_radial=  2 for radial functions.
  Species W                   : Default cutoff onset for free atom density etc. : 0.40000000E+01 AA.
  Species W                   : Basic radial grid will be enhanced according to radial_multiplier =   2, to contain   143 grid points.
 
  Reading configuration options for species Se                  .
  | Found nuclear charge :  34.0000
  | Found atomic mass :    78.9600000000000      amu
  | Found l_max for Hartree potential  :   6
  | Found cutoff potl. onset [A], width [A], scale factor :    4.00000    2.00000    1.00000
  | Threshold for basis-dependent cutoff potential is   0.100000E-03
  | Found data for basic radial integration grid :    55 points, outermost radius =    7.000 A
  | Found multiplier for basic radial grid :   2
  | Found angular grid specification: user-specified.
  | Specified grid contains     5 separate shells.
  | Check grid settings after all constraints further below.
  | Found free-atom valence shell :  4 s   2.000
  | Found free-atom valence shell :  4 p   4.000
  | Found free-atom valence shell :  3 d  10.000
  | Found free-ion valence shell :  4 s   1.000
  | Found free-ion valence shell :  4 p   3.000
  | Found free-ion valence shell :  3 d  10.000
  | Found hydrogenic basis function :  3 d   4.300
  | Found hydrogenic basis function :  2 p   1.600
  | Found hydrogenic basis function :  4 f   7.200
  | Found ionic basis function :  4 s , default cutoff radius.
  Species Se                  : Missing cutoff potential type.
  Defaulting to exp(1/x)/(1-x)^2 type cutoff potential.
  Species Se: No 'logarithmic' tag. Using default grid for free atom:
  | Default logarithmic grid data [bohr] : 0.1000E-03 0.1000E+03 0.1012E+01
  | Will include ionic basis functions of  2.0-fold positive Se                   ion.
  Species Se: On-site basis accuracy parameter (for Gram-Schmidt orthonormalisation) not specified.
  Using default value basis_acc =  0.1000000E-03.
  Species Se                  : Using default innermost maximum threshold i_radial=  2 for radial functions.
  Species Se                  : Default cutoff onset for free atom density etc. : 0.40000000E+01 AA.
  Species Se                  : Basic radial grid will be enhanced according to radial_multiplier =   2, to contain   111 grid points.
 
  Finished reading input file 'control.in'.
 
------------------------------------------------------------


------------------------------------------------------------
          Reading geometry description geometry.in.
------------------------------------------------------------
  Vacuum level in z-axis :   0.525690E+02
  Found keyword 'hessian_file', indicating that this is the continuation of a structure optimization.
  Verifying the existence of the file 'hessian.aims' on all processors
  | The smallest distance between any two atoms is         2.37107379 AA.
  | The first atom of this pair is atom number                     24 .
  | The second atom of this pair is atom number                    22 .
  | Wigner-Seitz cell of the first atom image           0     1     0 .
  | (The Wigner-Seitz cell of the second atom is 0 0 0  by definition.)

  Symmetry information by spglib:
  | Precision set to  0.1E-04
  | Number of Operations  : 1
  | Space group           : 1
  | International         : P1
  | Schoenflies           : C1^1
  Input structure read successfully.
  The structure contains       74 atoms,  and a total of       2576.000 electrons.

  Input geometry:
  | Unit cell:
  |       15.80931190        0.00000000        0.00000000
  |       -7.90633915       13.69010115        0.00000000
  |        0.00000000        0.00000000       99.93885963
  | Atomic structure:
  |       Atom                x [A]            y [A]            z [A]
  |    1: Species W             0.00054871        0.91415886        2.59884809
  |    2: Species S             1.58430266        1.81190197        4.17302289
  |    3: Species S             1.58416906        1.81136239        1.02425190
  |    4: Species W            -1.55931025        3.67170943        2.59873329
  |    5: Species S             0.03848954        4.59402817        4.16020669
  |    6: Species S             0.03815120        4.59401084        1.03678903
  |    7: Species W            -3.16819529        6.40091556        2.59892552
  |    8: Species S            -1.59901276        7.32354493        4.17328017
  |    9: Species S            -1.59928441        7.32371555        1.02443547
  |   10: Species W            -4.73545593        9.14339815        2.59901995
  |   11: Species S            -3.16173507       10.05667559        4.18139361
  |   12: Species S            -3.16177065       10.05664354        1.01656441
  |   13: Species W            -6.31367509       11.87614178        2.59898594
  |   14: Species S            -4.73584124       12.78242776        4.18130263
  |   15: Species S            -4.73586699       12.78220797        1.01648716
  |   16: Species W             3.17026871        0.90615923        2.59873939
  |   17: Species S             4.75610266        1.81164347        4.17317473
  |   18: Species S             4.75626039        1.81143479        1.02432659
  |   19: Species W             1.63052569        3.64322751        2.59824078
  |   20: Species S             3.16998639        4.52781202        4.17024995
  |   21: Species S             3.16995266        4.52635069        1.02566728
  |   22: Species W             0.01040508        6.44816078        2.59857849
  |   23: Species S             1.54570265        7.33928242        4.17121225
  |   24: Species S             1.54559825        7.33928714        1.02661581
  |   25: Species W            -1.59065308        9.14975507        2.59896698
  |   26: Species S            -0.01367874       10.07041278        4.17350881
  |   27: Species S            -0.01343019       10.07030459        1.02461730
  |   28: Species W            -3.15791249       11.87615410        2.59894776
  |   29: Species S            -1.57791315       12.78834190        4.18074897
  |   30: Species S            -1.57782721       12.78823748        1.01716495
  |   31: Species W             6.33998927        0.91416212        2.59889509
  |   32: Species S             7.91206798        1.84308404        4.17648615
  |   33: Species S             7.91215165        1.84310089        1.02143897
  |   34: Species W             4.70946029        3.64307214        2.59864629
  |   35: Species S             6.30137897        4.59375926        4.16072108
  |   36: Species S             6.30152738        4.59406138        1.03729178
  |   37: Species S             4.79391352        7.33948188        4.17236135
  |   38: Species S             4.79259106        7.33868433        1.02776351
  |   39: Species W             1.54952537        9.11442348        2.59930879
  |   40: Species S             3.16901799       10.01761208        4.16113443
  |   41: Species S             3.16920445       10.01732465        1.03772355
  |   42: Species W             0.00081802       11.89052167        2.59901945
  |   43: Species S             1.59141047       12.78748571        4.17657795
  |   44: Species S             1.59155479       12.78735553        1.02158198
  |   45: Species W             9.49388697        0.92575499        2.59900341
  |   46: Species S            11.07485779        1.83846705        4.17613912
  |   47: Species S            11.07483111        1.83841363        1.02181819
  |   48: Species W             7.89921029        3.67162597        2.59899498
  |   49: Species S             9.48914725        4.57485212        4.17652753
  |   50: Species S             9.48910101        4.57494059        1.02149351
  |   51: Species W             6.32867695        6.44804876        2.59937594
  |   52: Species S             7.93822920        7.32353876        4.17366302
  |   53: Species S             7.93792567        7.32356154        1.02481869
  |   54: Species W             4.78875537        9.11421983        2.59971572
  |   55: Species S             6.35190992       10.07043819        4.17372394
  |   56: Species S             6.35153299       10.07004306        1.02494456
  |   57: Species W             3.16888964       11.86218436        2.59921490
  |   58: Species S             4.74618873       12.78750961        4.17660190
  |   59: Species S             4.74610554       12.78730561        1.02160996
  |   60: Species W            12.65594474        0.92575667        2.59897775
  |   61: Species S            14.23766988        1.84324651        4.17634110
  |   62: Species S            14.23752664        1.84305026        1.02136068
  |   63: Species W            11.07458050        3.66393236        2.59895698
  |   64: Species S            12.66000816        4.57489830        4.17637752
  |   65: Species S            12.65980674        4.57495594        1.02136903
  |   66: Species W             9.50728375        6.40085796        2.59907683
  |   67: Species S            11.07420161        7.31897181        4.18079209
  |   68: Species S            11.07403891        7.31899534        1.01721705
  |   69: Species W             7.92904522        9.14968143        2.59924414
  |   70: Species S             9.50007841       10.05669573        4.18148338
  |   71: Species S             9.49987913       10.05655799        1.01667494
  |   72: Species W             6.33692171       11.89047998        2.59912187
  |   73: Species S             7.91555496       12.78841845        4.18078038
  |   74: Species S             7.91540840       12.78815579        1.01719133

  Lattice parameters for 3D lattice (in Angstroms) :    15.809312   15.809145   99.938860
  Angle(s) between unit vectors (in degrees)       :    90.000000   90.000000  120.007393


  Quantities derived from the lattice vectors:
  | Reciprocal lattice vector 1:  0.397436  0.229528  0.000000
  | Reciprocal lattice vector 2: -0.000000  0.458958  0.000000
  | Reciprocal lattice vector 3:  0.000000  0.000000  0.062870
  | Unit cell volume                               :   0.216299E+05  A^3

  Fractional coordinates:
                         L1                L2                L3
       atom_frac         0.03342940        0.06677517        0.02600438  W
       atom_frac         0.16640297        0.13235125        0.04175576  S
       atom_frac         0.16637481        0.13231183        0.01024879  S
       atom_frac         0.03549705        0.26820178        0.02600323  W
       atom_frac         0.17025683        0.33557299        0.04162752  S
       atom_frac         0.17023480        0.33557172        0.01037423  S
       atom_frac         0.03342817        0.46755794        0.02600515  W
       atom_frac         0.16638915        0.53495185        0.04175833  S
       atom_frac         0.16637820        0.53496431        0.01025062  S
       atom_frac         0.03447719        0.66788390        0.02600610  W
       atom_frac         0.16738361        0.73459469        0.04183952  S
       atom_frac         0.16738019        0.73459235        0.01017186  S
       atom_frac         0.03447728        0.86749847        0.02600576  W
       atom_frac         0.16738845        0.93369856        0.04183861  S
       atom_frac         0.16737879        0.93368251        0.01017109  S
       atom_frac         0.23363420        0.06619084        0.02600329  W
       atom_frac         0.36702212        0.13233237        0.04175728  S
       atom_frac         0.36702448        0.13231712        0.01024953  S
       atom_frac         0.23622603        0.26612130        0.02599830  W
       atom_frac         0.36591719        0.33073620        0.04172801  S
       atom_frac         0.36586167        0.33062946        0.01026295  S
       atom_frac         0.23621281        0.47100899        0.02600168  W
       atom_frac         0.36587944        0.53610140        0.04173764  S
       atom_frac         0.36587301        0.53610175        0.01027244  S
       atom_frac         0.23363033        0.66834824        0.02600557  W
       atom_frac         0.36701215        0.73559813        0.04176062  S
       atom_frac         0.36702392        0.73559023        0.01025244  S
       atom_frac         0.23409189        0.86749937        0.02600538  W
       atom_frac         0.36735564        0.93413056        0.04183307  S
       atom_frac         0.36735726        0.93412294        0.01017787  S
       atom_frac         0.43442361        0.06677541        0.02600485  W
       atom_frac         0.56779765        0.13462896        0.04179041  S
       atom_frac         0.56780356        0.13463019        0.01022064  S
       atom_frac         0.43097485        0.26610995        0.02600236  W
       atom_frac         0.56639894        0.33555335        0.04163267  S
       atom_frac         0.56641937        0.33557542        0.01037926  S
       atom_frac         0.57134860        0.53611597        0.04174914  S
       atom_frac         0.57123581        0.53605771        0.01028392  S
       atom_frac         0.43096806        0.66576743        0.02600899  W
       atom_frac         0.56640117        0.73174128        0.04163680  S
       atom_frac         0.56640246        0.73172028        0.01038358  S
       atom_frac         0.43441864        0.86854885        0.02600609  W
       atom_frac         0.56779632        0.93406802        0.04179133  S
       atom_frac         0.56780069        0.93405851        0.01022207  S
       atom_frac         0.63434330        0.06762222        0.02600593  W
       atom_frac         0.76768765        0.13429171        0.04178694  S
       atom_frac         0.76768402        0.13428780        0.01022443  S
       atom_frac         0.63378193        0.26819568        0.02600585  W
       atom_frac         0.76734690        0.33417227        0.04179083  S
       atom_frac         0.76734721        0.33417873        0.01022118  S
       atom_frac         0.63586380        0.47100081        0.02600966  W
       atom_frac         0.76965629        0.53495140        0.04176216  S
       atom_frac         0.76963793        0.53495306        0.01025446  S
       atom_frac         0.63585442        0.66575256        0.02601306  W
       atom_frac         0.76966113        0.73559998        0.04176277  S
       atom_frac         0.76962285        0.73557112        0.01025572  S
       atom_frac         0.63377623        0.86647894        0.02600805  W
       atom_frac         0.76734909        0.93406977        0.04179157  S
       atom_frac         0.76733638        0.93405487        0.01022235  S
       atom_frac         0.83435572        0.06762234        0.02600568  W
       atom_frac         0.96792232        0.13464082        0.04178896  S
       atom_frac         0.96790609        0.13462649        0.01021986  S
       atom_frac         0.83435531        0.26763370        0.02600547  W
       atom_frac         0.96791778        0.33417564        0.04178933  S
       atom_frac         0.96790715        0.33417985        0.01021994  S
       atom_frac         0.83519904        0.46755374        0.02600667  W
       atom_frac         0.96785182        0.53461780        0.04183350  S
       atom_frac         0.96784239        0.53461952        0.01017839  S
       atom_frac         0.83578531        0.66834287        0.02600834  W
       atom_frac         0.96829292        0.73459616        0.04184042  S
       atom_frac         0.96827528        0.73458610        0.01017297  S
       atom_frac         0.83520014        0.86854581        0.02600712  W
       atom_frac         0.96785694        0.93413616        0.04183338  S
       atom_frac         0.96783807        0.93411697        0.01017814  S

  Initial moments and charges:
  |  Atom   Moment         Charge        Species
  |     1   0.100000E+01   0.000000E+00   W
  |     2   0.100000E+01   0.000000E+00   S
  |     3   0.100000E+01   0.000000E+00   S
  |     4   0.100000E+01   0.000000E+00   W
  |     5   0.100000E+01   0.000000E+00   S
  |     6   0.100000E+01   0.000000E+00   S
  |     7   0.100000E+01   0.000000E+00   W
  |     8   0.100000E+01   0.000000E+00   S
  |     9   0.100000E+01   0.000000E+00   S
  |    10   0.100000E+01   0.000000E+00   W
  |    11   0.100000E+01   0.000000E+00   S
  |    12   0.100000E+01   0.000000E+00   S
  |    13   0.100000E+01   0.000000E+00   W
  |    14   0.100000E+01   0.000000E+00   S
  |    15   0.100000E+01   0.000000E+00   S
  |    16   0.100000E+01   0.000000E+00   W
  |    17   0.100000E+01   0.000000E+00   S
  |    18   0.100000E+01   0.000000E+00   S
  |    19   0.100000E+01   0.000000E+00   W
  |    20   0.100000E+01   0.000000E+00   S
  |    21   0.100000E+01   0.000000E+00   S
  |    22   0.100000E+01   0.000000E+00   W
  |    23   0.100000E+01   0.000000E+00   S
  |    24   0.100000E+01   0.000000E+00   S
  |    25   0.100000E+01   0.000000E+00   W
  |    26   0.100000E+01   0.000000E+00   S
  |    27   0.100000E+01   0.000000E+00   S
  |    28   0.100000E+01   0.000000E+00   W
  |    29   0.100000E+01   0.000000E+00   S
  |    30   0.100000E+01   0.000000E+00   S
  |    31   0.100000E+01   0.000000E+00   W
  |    32   0.100000E+01   0.000000E+00   S
  |    33   0.100000E+01   0.000000E+00   S
  |    34   0.100000E+01   0.000000E+00   W
  |    35   0.100000E+01   0.000000E+00   S
  |    36   0.100000E+01   0.000000E+00   S
  |    37   0.100000E+01   0.000000E+00   S
  |    38   0.100000E+01   0.000000E+00   S
  |    39   0.100000E+01   0.000000E+00   W
  |    40   0.100000E+01   0.000000E+00   S
  |    41   0.100000E+01   0.000000E+00   S
  |    42   0.100000E+01   0.000000E+00   W
  |    43   0.100000E+01   0.000000E+00   S
  |    44   0.100000E+01   0.000000E+00   S
  |    45   0.100000E+01   0.000000E+00   W
  |    46   0.100000E+01   0.000000E+00   S
  |    47   0.100000E+01   0.000000E+00   S
  |    48   0.100000E+01   0.000000E+00   W
  |    49   0.100000E+01   0.000000E+00   S
  |    50   0.100000E+01   0.000000E+00   S
  |    51   0.100000E+01   0.000000E+00   W
  |    52   0.100000E+01   0.000000E+00   S
  |    53   0.100000E+01   0.000000E+00   S
  |    54   0.100000E+01   0.000000E+00   W
  |    55   0.100000E+01   0.000000E+00   S
  |    56   0.100000E+01   0.000000E+00   S
  |    57   0.100000E+01   0.000000E+00   W
  |    58   0.100000E+01   0.000000E+00   S
  |    59   0.100000E+01   0.000000E+00   S
  |    60   0.100000E+01   0.000000E+00   W
  |    61   0.100000E+01   0.000000E+00   S
  |    62   0.100000E+01   0.000000E+00   S
  |    63   0.100000E+01   0.000000E+00   W
  |    64   0.100000E+01   0.000000E+00   S
  |    65   0.100000E+01   0.000000E+00   S
  |    66   0.100000E+01   0.000000E+00   W
  |    67   0.100000E+01   0.000000E+00   S
  |    68   0.100000E+01   0.000000E+00   S
  |    69   0.100000E+01   0.000000E+00   W
  |    70   0.100000E+01   0.000000E+00   S
  |    71   0.100000E+01   0.000000E+00   S
  |    72   0.100000E+01   0.000000E+00   W
  |    73   0.100000E+01   0.000000E+00   S
  |    74   0.100000E+01   0.000000E+00   S

 
  Finished reading input file 'control.in'.
 

------------------------------------------------------------
          Reading geometry description geometry.in.
------------------------------------------------------------
 
  Consistency checks for stacksize environment parameter are next.
 
  | Maximum stacksize for task 0: unlimited
  | Maximum stacksize for task 1: unlimited
  | Maximum stacksize for task 2: unlimited
  | Maximum stacksize for task 3: unlimited
  | Maximum stacksize for task 4: unlimited
  | Maximum stacksize for task 5: unlimited
  | Maximum stacksize for task 6: unlimited
  | Maximum stacksize for task 7: unlimited
  | Maximum stacksize for task 8: unlimited
  | Maximum stacksize for task 9: unlimited
  | Maximum stacksize for task 10: unlimited
  | Maximum stacksize for task 11: unlimited
  | Maximum stacksize for task 12: unlimited
  | Maximum stacksize for task 13: unlimited
  | Maximum stacksize for task 14: unlimited
  | Maximum stacksize for task 15: unlimited
  | Maximum stacksize for task 16: unlimited
  | Maximum stacksize for task 17: unlimited
  | Maximum stacksize for task 18: unlimited
  | Maximum stacksize for task 19: unlimited
  | Maximum stacksize for task 20: unlimited
  | Maximum stacksize for task 21: unlimited
  | Maximum stacksize for task 22: unlimited
  | Maximum stacksize for task 23: unlimited
  | Maximum stacksize for task 24: unlimited
  | Maximum stacksize for task 25: unlimited
  | Maximum stacksize for task 26: unlimited
  | Maximum stacksize for task 27: unlimited
  | Maximum stacksize for task 28: unlimited
  | Maximum stacksize for task 29: unlimited
  | Maximum stacksize for task 30: unlimited
  | Maximum stacksize for task 31: unlimited
  | Maximum stacksize for task 32: unlimited
  | Maximum stacksize for task 33: unlimited
  | Maximum stacksize for task 34: unlimited
  | Maximum stacksize for task 35: unlimited
  | Maximum stacksize for task 36: unlimited
  | Maximum stacksize for task 37: unlimited
  | Maximum stacksize for task 38: unlimited
  | Maximum stacksize for task 39: unlimited
  | Maximum stacksize for task 40: unlimited
  | Maximum stacksize for task 41: unlimited
  | Maximum stacksize for task 42: unlimited
  | Maximum stacksize for task 43: unlimited
  | Maximum stacksize for task 44: unlimited
  | Maximum stacksize for task 45: unlimited
  | Maximum stacksize for task 46: unlimited
  | Maximum stacksize for task 47: unlimited
  | Maximum stacksize for task 48: unlimited
  | Maximum stacksize for task 49: unlimited
  | Maximum stacksize for task 50: unlimited
  | Maximum stacksize for task 51: unlimited
  | Maximum stacksize for task 52: unlimited
  | Maximum stacksize for task 53: unlimited
  | Maximum stacksize for task 54: unlimited
  | Maximum stacksize for task 55: unlimited
  | Maximum stacksize for task 56: unlimited
  | Maximum stacksize for task 57: unlimited
  | Maximum stacksize for task 58: unlimited
  | Maximum stacksize for task 59: unlimited
  | Maximum stacksize for task 60: unlimited
  | Maximum stacksize for task 61: unlimited
  | Maximum stacksize for task 62: unlimited
  | Maximum stacksize for task 63: unlimited
  | Maximum stacksize for task 64: unlimited
  | Maximum stacksize for task 65: unlimited
  | Maximum stacksize for task 66: unlimited
  | Maximum stacksize for task 67: unlimited
  | Maximum stacksize for task 68: unlimited
  | Maximum stacksize for task 69: unlimited
  | Maximum stacksize for task 70: unlimited
  | Maximum stacksize for task 71: unlimited
  | Maximum stacksize for task 72: unlimited
  | Maximum stacksize for task 73: unlimited
  | Maximum stacksize for task 74: unlimited
  | Maximum stacksize for task 75: unlimited
  | Maximum stacksize for task 76: unlimited
  | Maximum stacksize for task 77: unlimited
  | Maximum stacksize for task 78: unlimited
  | Maximum stacksize for task 79: unlimited
  | Maximum stacksize for task 80: unlimited
  | Maximum stacksize for task 81: unlimited
  | Maximum stacksize for task 82: unlimited
  | Maximum stacksize for task 83: unlimited
  | Maximum stacksize for task 84: unlimited
  | Maximum stacksize for task 85: unlimited
  | Maximum stacksize for task 86: unlimited
  | Maximum stacksize for task 87: unlimited
  | Maximum stacksize for task 88: unlimited
  | Maximum stacksize for task 89: unlimited
  | Maximum stacksize for task 90: unlimited
  | Maximum stacksize for task 91: unlimited
  | Maximum stacksize for task 92: unlimited
  | Maximum stacksize for task 93: unlimited
  | Maximum stacksize for task 94: unlimited
  | Maximum stacksize for task 95: unlimited
  | Maximum stacksize for task 96: unlimited
  | Maximum stacksize for task 97: unlimited
  | Maximum stacksize for task 98: unlimited
  | Maximum stacksize for task 99: unlimited
  | Maximum stacksize for task 100: unlimited
  | Maximum stacksize for task 101: unlimited
  | Maximum stacksize for task 102: unlimited
  | Maximum stacksize for task 103: unlimited
  | Maximum stacksize for task 104: unlimited
  | Maximum stacksize for task 105: unlimited
  | Maximum stacksize for task 106: unlimited
  | Maximum stacksize for task 107: unlimited
  | Maximum stacksize for task 108: unlimited
  | Maximum stacksize for task 109: unlimited
  | Maximum stacksize for task 110: unlimited
  | Maximum stacksize for task 111: unlimited
  | Maximum stacksize for task 112: unlimited
  | Maximum stacksize for task 113: unlimited
  | Maximum stacksize for task 114: unlimited
  | Maximum stacksize for task 115: unlimited
  | Maximum stacksize for task 116: unlimited
  | Maximum stacksize for task 117: unlimited
  | Maximum stacksize for task 118: unlimited
  | Maximum stacksize for task 119: unlimited
  | Maximum stacksize for task 120: unlimited
  | Maximum stacksize for task 121: unlimited
  | Maximum stacksize for task 122: unlimited
  | Maximum stacksize for task 123: unlimited
  | Maximum stacksize for task 124: unlimited
  | Maximum stacksize for task 125: unlimited
  | Maximum stacksize for task 126: unlimited
  | Maximum stacksize for task 127: unlimited
  | Maximum stacksize for task 128: unlimited
  | Maximum stacksize for task 129: unlimited
  | Maximum stacksize for task 130: unlimited
  | Maximum stacksize for task 131: unlimited
  | Maximum stacksize for task 132: unlimited
  | Maximum stacksize for task 133: unlimited
  | Maximum stacksize for task 134: unlimited
  | Maximum stacksize for task 135: unlimited
  | Maximum stacksize for task 136: unlimited
  | Maximum stacksize for task 137: unlimited
  | Maximum stacksize for task 138: unlimited
  | Maximum stacksize for task 139: unlimited
  | Maximum stacksize for task 140: unlimited
  | Maximum stacksize for task 141: unlimited
  | Maximum stacksize for task 142: unlimited
  | Maximum stacksize for task 143: unlimited
  | Maximum stacksize for task 144: unlimited
  | Maximum stacksize for task 145: unlimited
  | Maximum stacksize for task 146: unlimited
  | Maximum stacksize for task 147: unlimited
  | Maximum stacksize for task 148: unlimited
  | Maximum stacksize for task 149: unlimited
  | Maximum stacksize for task 150: unlimited
  | Maximum stacksize for task 151: unlimited
  | Maximum stacksize for task 152: unlimited
  | Maximum stacksize for task 153: unlimited
  | Maximum stacksize for task 154: unlimited
  | Maximum stacksize for task 155: unlimited
  | Maximum stacksize for task 156: unlimited
  | Maximum stacksize for task 157: unlimited
  | Maximum stacksize for task 158: unlimited
  | Maximum stacksize for task 159: unlimited
  | Maximum stacksize for task 160: unlimited
  | Maximum stacksize for task 161: unlimited
  | Maximum stacksize for task 162: unlimited
  | Maximum stacksize for task 163: unlimited
  | Maximum stacksize for task 164: unlimited
  | Maximum stacksize for task 165: unlimited
  | Maximum stacksize for task 166: unlimited
  | Maximum stacksize for task 167: unlimited
  | Maximum stacksize for task 168: unlimited
  | Maximum stacksize for task 169: unlimited
  | Maximum stacksize for task 170: unlimited
  | Maximum stacksize for task 171: unlimited
  | Maximum stacksize for task 172: unlimited
  | Maximum stacksize for task 173: unlimited
  | Maximum stacksize for task 174: unlimited
  | Maximum stacksize for task 175: unlimited
  | Maximum stacksize for task 176: unlimited
  | Maximum stacksize for task 177: unlimited
  | Maximum stacksize for task 178: unlimited
  | Maximum stacksize for task 179: unlimited
  | Maximum stacksize for task 180: unlimited
  | Maximum stacksize for task 181: unlimited
  | Maximum stacksize for task 182: unlimited
  | Maximum stacksize for task 183: unlimited
  | Maximum stacksize for task 184: unlimited
  | Maximum stacksize for task 185: unlimited
  | Maximum stacksize for task 186: unlimited
  | Maximum stacksize for task 187: unlimited
  | Maximum stacksize for task 188: unlimited
  | Maximum stacksize for task 189: unlimited
  | Maximum stacksize for task 190: unlimited
  | Maximum stacksize for task 191: unlimited
  | Maximum stacksize for task 192: unlimited
  | Maximum stacksize for task 193: unlimited
  | Maximum stacksize for task 194: unlimited
  | Maximum stacksize for task 195: unlimited
  | Maximum stacksize for task 196: unlimited
  | Maximum stacksize for task 197: unlimited
  | Maximum stacksize for task 198: unlimited
  | Maximum stacksize for task 199: unlimited
  | Maximum stacksize for task 200: unlimited
  | Maximum stacksize for task 201: unlimited
  | Maximum stacksize for task 202: unlimited
  | Maximum stacksize for task 203: unlimited
  | Maximum stacksize for task 204: unlimited
  | Maximum stacksize for task 205: unlimited
  | Maximum stacksize for task 206: unlimited
  | Maximum stacksize for task 207: unlimited
  | Maximum stacksize for task 208: unlimited
  | Maximum stacksize for task 209: unlimited
  | Maximum stacksize for task 210: unlimited
  | Maximum stacksize for task 211: unlimited
  | Maximum stacksize for task 212: unlimited
  | Maximum stacksize for task 213: unlimited
  | Maximum stacksize for task 214: unlimited
  | Maximum stacksize for task 215: unlimited
  | Current stacksize for task 0: unlimited
  | Current stacksize for task 1: unlimited
  | Current stacksize for task 2: unlimited
  | Current stacksize for task 3: unlimited
  | Current stacksize for task 4: unlimited
  | Current stacksize for task 5: unlimited
  | Current stacksize for task 6: unlimited
  | Current stacksize for task 7: unlimited
  | Current stacksize for task 8: unlimited
  | Current stacksize for task 9: unlimited
  | Current stacksize for task 10: unlimited
  | Current stacksize for task 11: unlimited
  | Current stacksize for task 12: unlimited
  | Current stacksize for task 13: unlimited
  | Current stacksize for task 14: unlimited
  | Current stacksize for task 15: unlimited
  | Current stacksize for task 16: unlimited
  | Current stacksize for task 17: unlimited
  | Current stacksize for task 18: unlimited
  | Current stacksize for task 19: unlimited
  | Current stacksize for task 20: unlimited
  | Current stacksize for task 21: unlimited
  | Current stacksize for task 22: unlimited
  | Current stacksize for task 23: unlimited
  | Current stacksize for task 24: unlimited
  | Current stacksize for task 25: unlimited
  | Current stacksize for task 26: unlimited
  | Current stacksize for task 27: unlimited
  | Current stacksize for task 28: unlimited
  | Current stacksize for task 29: unlimited
  | Current stacksize for task 30: unlimited
  | Current stacksize for task 31: unlimited
  | Current stacksize for task 32: unlimited
  | Current stacksize for task 33: unlimited
  | Current stacksize for task 34: unlimited
  | Current stacksize for task 35: unlimited
  | Current stacksize for task 36: unlimited
  | Current stacksize for task 37: unlimited
  | Current stacksize for task 38: unlimited
  | Current stacksize for task 39: unlimited
  | Current stacksize for task 40: unlimited
  | Current stacksize for task 41: unlimited
  | Current stacksize for task 42: unlimited
  | Current stacksize for task 43: unlimited
  | Current stacksize for task 44: unlimited
  | Current stacksize for task 45: unlimited
  | Current stacksize for task 46: unlimited
  | Current stacksize for task 47: unlimited
  | Current stacksize for task 48: unlimited
  | Current stacksize for task 49: unlimited
  | Current stacksize for task 50: unlimited
  | Current stacksize for task 51: unlimited
  | Current stacksize for task 52: unlimited
  | Current stacksize for task 53: unlimited
  | Current stacksize for task 54: unlimited
  | Current stacksize for task 55: unlimited
  | Current stacksize for task 56: unlimited
  | Current stacksize for task 57: unlimited
  | Current stacksize for task 58: unlimited
  | Current stacksize for task 59: unlimited
  | Current stacksize for task 60: unlimited
  | Current stacksize for task 61: unlimited
  | Current stacksize for task 62: unlimited
  | Current stacksize for task 63: unlimited
  | Current stacksize for task 64: unlimited
  | Current stacksize for task 65: unlimited
  | Current stacksize for task 66: unlimited
  | Current stacksize for task 67: unlimited
  | Current stacksize for task 68: unlimited
  | Current stacksize for task 69: unlimited
  | Current stacksize for task 70: unlimited
  | Current stacksize for task 71: unlimited
  | Current stacksize for task 72: unlimited
  | Current stacksize for task 73: unlimited
  | Current stacksize for task 74: unlimited
  | Current stacksize for task 75: unlimited
  | Current stacksize for task 76: unlimited
  | Current stacksize for task 77: unlimited
  | Current stacksize for task 78: unlimited
  | Current stacksize for task 79: unlimited
  | Current stacksize for task 80: unlimited
  | Current stacksize for task 81: unlimited
  | Current stacksize for task 82: unlimited
  | Current stacksize for task 83: unlimited
  | Current stacksize for task 84: unlimited
  | Current stacksize for task 85: unlimited
  | Current stacksize for task 86: unlimited
  | Current stacksize for task 87: unlimited
  | Current stacksize for task 88: unlimited
  | Current stacksize for task 89: unlimited
  | Current stacksize for task 90: unlimited
  | Current stacksize for task 91: unlimited
  | Current stacksize for task 92: unlimited
  | Current stacksize for task 93: unlimited
  | Current stacksize for task 94: unlimited
  | Current stacksize for task 95: unlimited
  | Current stacksize for task 96: unlimited
  | Current stacksize for task 97: unlimited
  | Current stacksize for task 98: unlimited
  | Current stacksize for task 99: unlimited
  | Current stacksize for task 100: unlimited
  | Current stacksize for task 101: unlimited
  | Current stacksize for task 102: unlimited
  | Current stacksize for task 103: unlimited
  | Current stacksize for task 104: unlimited
  | Current stacksize for task 105: unlimited
  | Current stacksize for task 106: unlimited
  | Current stacksize for task 107: unlimited
  | Current stacksize for task 108: unlimited
  | Current stacksize for task 109: unlimited
  | Current stacksize for task 110: unlimited
  | Current stacksize for task 111: unlimited
  | Current stacksize for task 112: unlimited
  | Current stacksize for task 113: unlimited
  | Current stacksize for task 114: unlimited
  | Current stacksize for task 115: unlimited
  | Current stacksize for task 116: unlimited
  | Current stacksize for task 117: unlimited
  | Current stacksize for task 118: unlimited
  | Current stacksize for task 119: unlimited
  | Current stacksize for task 120: unlimited
  | Current stacksize for task 121: unlimited
  | Current stacksize for task 122: unlimited
  | Current stacksize for task 123: unlimited
  | Current stacksize for task 124: unlimited
  | Current stacksize for task 125: unlimited
  | Current stacksize for task 126: unlimited
  | Current stacksize for task 127: unlimited
  | Current stacksize for task 128: unlimited
  | Current stacksize for task 129: unlimited
  | Current stacksize for task 130: unlimited
  | Current stacksize for task 131: unlimited
  | Current stacksize for task 132: unlimited
  | Current stacksize for task 133: unlimited
  | Current stacksize for task 134: unlimited
  | Current stacksize for task 135: unlimited
  | Current stacksize for task 136: unlimited
  | Current stacksize for task 137: unlimited
  | Current stacksize for task 138: unlimited
  | Current stacksize for task 139: unlimited
  | Current stacksize for task 140: unlimited
  | Current stacksize for task 141: unlimited
  | Current stacksize for task 142: unlimited
  | Current stacksize for task 143: unlimited
  | Current stacksize for task 144: unlimited
  | Current stacksize for task 145: unlimited
  | Current stacksize for task 146: unlimited
  | Current stacksize for task 147: unlimited
  | Current stacksize for task 148: unlimited
  | Current stacksize for task 149: unlimited
  | Current stacksize for task 150: unlimited
  | Current stacksize for task 151: unlimited
  | Current stacksize for task 152: unlimited
  | Current stacksize for task 153: unlimited
  | Current stacksize for task 154: unlimited
  | Current stacksize for task 155: unlimited
  | Current stacksize for task 156: unlimited
  | Current stacksize for task 157: unlimited
  | Current stacksize for task 158: unlimited
  | Current stacksize for task 159: unlimited
  | Current stacksize for task 160: unlimited
  | Current stacksize for task 161: unlimited
  | Current stacksize for task 162: unlimited
  | Current stacksize for task 163: unlimited
  | Current stacksize for task 164: unlimited
  | Current stacksize for task 165: unlimited
  | Current stacksize for task 166: unlimited
  | Current stacksize for task 167: unlimited
  | Current stacksize for task 168: unlimited
  | Current stacksize for task 169: unlimited
  | Current stacksize for task 170: unlimited
  | Current stacksize for task 171: unlimited
  | Current stacksize for task 172: unlimited
  | Current stacksize for task 173: unlimited
  | Current stacksize for task 174: unlimited
  | Current stacksize for task 175: unlimited
  | Current stacksize for task 176: unlimited
  | Current stacksize for task 177: unlimited
  | Current stacksize for task 178: unlimited
  | Current stacksize for task 179: unlimited
  | Current stacksize for task 180: unlimited
  | Current stacksize for task 181: unlimited
  | Current stacksize for task 182: unlimited
  | Current stacksize for task 183: unlimited
  | Current stacksize for task 184: unlimited
  | Current stacksize for task 185: unlimited
  | Current stacksize for task 186: unlimited
  | Current stacksize for task 187: unlimited
  | Current stacksize for task 188: unlimited
  | Current stacksize for task 189: unlimited
  | Current stacksize for task 190: unlimited
  | Current stacksize for task 191: unlimited
  | Current stacksize for task 192: unlimited
  | Current stacksize for task 193: unlimited
  | Current stacksize for task 194: unlimited
  | Current stacksize for task 195: unlimited
  | Current stacksize for task 196: unlimited
  | Current stacksize for task 197: unlimited
  | Current stacksize for task 198: unlimited
  | Current stacksize for task 199: unlimited
  | Current stacksize for task 200: unlimited
  | Current stacksize for task 201: unlimited
  | Current stacksize for task 202: unlimited
  | Current stacksize for task 203: unlimited
  | Current stacksize for task 204: unlimited
  | Current stacksize for task 205: unlimited
  | Current stacksize for task 206: unlimited
  | Current stacksize for task 207: unlimited
  | Current stacksize for task 208: unlimited
  | Current stacksize for task 209: unlimited
  | Current stacksize for task 210: unlimited
  | Current stacksize for task 211: unlimited
  | Current stacksize for task 212: unlimited
  | Current stacksize for task 213: unlimited
  | Current stacksize for task 214: unlimited
  | Current stacksize for task 215: unlimited
 
  Consistency checks for the contents of control.in are next.
 
  MPI_IN_PLACE appears to work with this MPI implementation.
  | Keeping use_mpi_in_place .true. (see manual).
  Target number of points in a grid batch is not set. Defaulting to  100
  Method for grid partitioning is not set. Defaulting to parallel hash+maxmin partitioning.
  Batch size limit is not set. Defaulting to    200
  By default, will store active basis functions for each batch.
  If in need of memory, prune_basis_once .false. can be used to disable this option.
  communication_type for Hartree potential was not specified.
  Defaulting to calc_hartree .
  Defaulting to Pulay charge density mixer.
  Pulay mixer: Number of relevant iterations not set.
  Defaulting to    8 iterations.
  Pulay mixer: Number of initial linear mixing iterations not set.
  Defaulting to    0 iterations.
  Work space size for distributed Hartree potential not set.
  Defaulting to   0.200000E+03 MB.
  Mixing parameter for charge density mixing has not been set.
  Using default: charge_mix_param =     0.0500.
  The mixing parameter will be adjusted in iteration number     2 of the first full s.c.f. cycle only.
  Mixing parameter for spin density mixing has not been set.
  Using charge_mix_param as default:     0.0500.
  Algorithm-dependent basis array size parameters:
  | n_max_pulay                         :        8
  Maximum number of self-consistency iterations not provided.
  Presetting  1000 iterations.
  Presetting      1001 iterations before the initial mixing cycle
  is restarted anyway using the sc_init_iter criterion / keyword.
  Presetting a factor      1.000 between actual scf density residual
  and density convergence criterion sc_accuracy_rho below which sc_init_iter
  takes no effect.
 * No s.c.f. convergence criteria (sc_accuracy_*) were provided in control.in.
 * The run will proceed with a reasonable default guess, but please check whether.
 * the s.c.f. cycles seem to take too much or too little time.
  No maximum number of relaxation steps, defaulting to     1000
  Using explicit Hessian from geometry.in.
  No maximum energy tolerance for TRM/BFGS moves, defaulting to   0.100000E-02
  Maximum energy tolerance by which TRM/BFGS trajectory may increase over multiple steps:   0.300000E-02
  No harmonic length scale. Defaulting to   0.250000E-01 A.
  No trust radius initializer. Defaulting to   0.200000E+00 A.
  Forces evaluation will include force correction term due to incomplete self-consistency (default).
[...]
  | VBM-spin (reference: upper vacuum level)    :     5.56884148 eV
  | CBM-spin (reference: upper vacuum level)    :     5.16046354 eV
  Spin-down energy levels:
  | Work function-spin ("upper" slab surface)   :     5.36308087 eV
  | Work function-spin ("lower" slab surface)   :     5.36308087 eV
  *** Warning: band gap may exist, check the suitability to define work function using chemical potential.
  | VBM-spin (reference: upper vacuum level)    :     5.56878509 eV
  | CBM-spin (reference: upper vacuum level)    :     5.16049889 eV
  Relaxation / MD: End force evaluation.       :  max(cpu_time)    wall_clock(cpu1)
  | Time for this force evaluation              :      989.439 s         989.496 s

------------------------------------------------------------
  Geometry optimization: Attempting to predict improved coordinates.

  Removing unitary transformations (pure translations, rotations) from forces on atoms.
  Atomic forces before filtering:
  | Net force on center of mass :   0.163336E-18 -0.653343E-19  0.762233E-19 eV/A
  Atomic forces after filtering:
  | Net force on center of mass :   0.163336E-18 -0.653343E-19  0.762233E-19 eV/A
  Net remaining forces (excluding translations, rotations) in present geometry:
  || Forces on atoms   || =   0.832163E-03 eV/A.
  Maximum force component is  0.832163E-03 eV/A.
  Present geometry is converged.

------------------------------------------------------------
  Final atomic structure:
                         x [A]             y [A]             z [A]
  lattice_vector        15.80931190        0.00000000        0.00000000
  lattice_vector        -7.90633915       13.69010115        0.00000000
  lattice_vector         0.00000000        0.00000000       99.93885963

            atom         0.00054871        0.91415886        2.59884809  W
            atom         1.58430266        1.81190197        4.17302289  S
            atom         1.58416906        1.81136239        1.02425190  S
            atom        -1.55931025        3.67170943        2.59873329  W
            atom         0.03848954        4.59402817        4.16020669  S
            atom         0.03815120        4.59401084        1.03678903  S
            atom        -3.16819529        6.40091556        2.59892552  W
            atom        -1.59901276        7.32354493        4.17328017  S
            atom        -1.59928441        7.32371555        1.02443547  S
            atom        -4.73545593        9.14339815        2.59901995  W
            atom        -3.16173507       10.05667559        4.18139361  S
            atom        -3.16177065       10.05664354        1.01656441  S
            atom        -6.31367509       11.87614178        2.59898594  W
            atom        -4.73584124       12.78242776        4.18130263  S
            atom        -4.73586699       12.78220797        1.01648716  S
            atom         3.17026871        0.90615923        2.59873939  W
            atom         4.75610266        1.81164347        4.17317473  S
            atom         4.75626039        1.81143479        1.02432659  S
            atom         1.63052569        3.64322751        2.59824078  W
            atom         3.16998639        4.52781202        4.17024995  S
            atom         3.16995266        4.52635069        1.02566728  S
            atom         0.01040508        6.44816078        2.59857849  W
            atom         1.54570265        7.33928242        4.17121225  S
            atom         1.54559825        7.33928714        1.02661581  S
            atom        -1.59065308        9.14975507        2.59896698  W
            atom        -0.01367874       10.07041278        4.17350881  S
            atom        -0.01343019       10.07030459        1.02461730  S
            atom        -3.15791249       11.87615410        2.59894776  W
            atom        -1.57791315       12.78834190        4.18074897  S
            atom        -1.57782721       12.78823748        1.01716495  S
            atom         6.33998927        0.91416212        2.59889509  W
            atom         7.91206798        1.84308404        4.17648615  S
            atom         7.91215165        1.84310089        1.02143897  S
            atom         4.70946029        3.64307214        2.59864629  W
            atom         6.30137897        4.59375926        4.16072108  S
            atom         6.30152738        4.59406138        1.03729178  S
            atom         4.79391352        7.33948188        4.17236135  S
            atom         4.79259106        7.33868433        1.02776351  S
            atom         1.54952537        9.11442348        2.59930879  W
            atom         3.16901799       10.01761208        4.16113443  S
            atom         3.16920445       10.01732465        1.03772355  S
            atom         0.00081802       11.89052167        2.59901945  W
            atom         1.59141047       12.78748571        4.17657795  S
            atom         1.59155479       12.78735553        1.02158198  S
            atom         9.49388697        0.92575499        2.59900341  W
            atom        11.07485779        1.83846705        4.17613912  S
            atom        11.07483111        1.83841363        1.02181819  S
            atom         7.89921029        3.67162597        2.59899498  W
            atom         9.48914725        4.57485212        4.17652753  S
            atom         9.48910101        4.57494059        1.02149351  S
            atom         6.32867695        6.44804876        2.59937594  W
            atom         7.93822920        7.32353876        4.17366302  S
            atom         7.93792567        7.32356154        1.02481869  S
            atom         4.78875537        9.11421983        2.59971572  W
            atom         6.35190992       10.07043819        4.17372394  S
            atom         6.35153299       10.07004306        1.02494456  S
            atom         3.16888964       11.86218436        2.59921490  W
            atom         4.74618873       12.78750961        4.17660190  S
            atom         4.74610554       12.78730561        1.02160996  S
            atom        12.65594474        0.92575667        2.59897775  W
            atom        14.23766988        1.84324651        4.17634110  S
            atom        14.23752664        1.84305026        1.02136068  S
            atom        11.07458050        3.66393236        2.59895698  W
            atom        12.66000816        4.57489830        4.17637752  S
            atom        12.65980674        4.57495594        1.02136903  S
            atom         9.50728375        6.40085796        2.59907683  W
            atom        11.07420161        7.31897181        4.18079209  S
            atom        11.07403891        7.31899534        1.01721705  S
            atom         7.92904522        9.14968143        2.59924414  W
            atom         9.50007841       10.05669573        4.18148338  S
            atom         9.49987913       10.05655799        1.01667494  S
            atom         6.33692171       11.89047998        2.59912187  W
            atom         7.91555496       12.78841845        4.18078038  S
            atom         7.91540840       12.78815579        1.01719133  S

  Fractional coordinates:
                         L1                L2                L3
       atom_frac         0.03342940        0.06677517        0.02600438  W
       atom_frac         0.16640297        0.13235125        0.04175576  S
       atom_frac         0.16637481        0.13231183        0.01024879  S
       atom_frac         0.03549705        0.26820178        0.02600323  W
       atom_frac         0.17025683        0.33557299        0.04162752  S
       atom_frac         0.17023480        0.33557172        0.01037423  S
       atom_frac         0.03342817        0.46755794        0.02600515  W
       atom_frac         0.16638915        0.53495185        0.04175833  S
       atom_frac         0.16637820        0.53496431        0.01025062  S
       atom_frac         0.03447719        0.66788390        0.02600610  W
       atom_frac         0.16738361        0.73459469        0.04183952  S
       atom_frac         0.16738019        0.73459235        0.01017186  S
       atom_frac         0.03447728        0.86749847        0.02600576  W
       atom_frac         0.16738845        0.93369856        0.04183861  S
       atom_frac         0.16737879        0.93368251        0.01017109  S
       atom_frac         0.23363420        0.06619084        0.02600329  W
       atom_frac         0.36702212        0.13233237        0.04175728  S
       atom_frac         0.36702448        0.13231712        0.01024953  S
       atom_frac         0.23622603        0.26612130        0.02599830  W
       atom_frac         0.36591719        0.33073620        0.04172801  S
       atom_frac         0.36586167        0.33062946        0.01026295  S
       atom_frac         0.23621281        0.47100899        0.02600168  W
       atom_frac         0.36587944        0.53610140        0.04173764  S
       atom_frac         0.36587301        0.53610175        0.01027244  S
       atom_frac         0.23363033        0.66834824        0.02600557  W
       atom_frac         0.36701215        0.73559813        0.04176062  S
       atom_frac         0.36702392        0.73559023        0.01025244  S
       atom_frac         0.23409189        0.86749937        0.02600538  W
       atom_frac         0.36735564        0.93413056        0.04183307  S
       atom_frac         0.36735726        0.93412294        0.01017787  S
       atom_frac         0.43442361        0.06677541        0.02600485  W
       atom_frac         0.56779765        0.13462896        0.04179041  S
       atom_frac         0.56780356        0.13463019        0.01022064  S
       atom_frac         0.43097485        0.26610995        0.02600236  W
       atom_frac         0.56639894        0.33555335        0.04163267  S
       atom_frac         0.56641937        0.33557542        0.01037926  S
       atom_frac         0.57134860        0.53611597        0.04174914  S
       atom_frac         0.57123581        0.53605771        0.01028392  S
       atom_frac         0.43096806        0.66576743        0.02600899  W
       atom_frac         0.56640117        0.73174128        0.04163680  S
       atom_frac         0.56640246        0.73172028        0.01038358  S
       atom_frac         0.43441864        0.86854885        0.02600609  W
       atom_frac         0.56779632        0.93406802        0.04179133  S
       atom_frac         0.56780069        0.93405851        0.01022207  S
       atom_frac         0.63434330        0.06762222        0.02600593  W
       atom_frac         0.76768765        0.13429171        0.04178694  S
       atom_frac         0.76768402        0.13428780        0.01022443  S
       atom_frac         0.63378193        0.26819568        0.02600585  W
       atom_frac         0.76734690        0.33417227        0.04179083  S
       atom_frac         0.76734721        0.33417873        0.01022118  S
       atom_frac         0.63586380        0.47100081        0.02600966  W
       atom_frac         0.76965629        0.53495140        0.04176216  S
       atom_frac         0.76963793        0.53495306        0.01025446  S
       atom_frac         0.63585442        0.66575256        0.02601306  W
       atom_frac         0.76966113        0.73559998        0.04176277  S
       atom_frac         0.76962285        0.73557112        0.01025572  S
       atom_frac         0.63377623        0.86647894        0.02600805  W
       atom_frac         0.76734909        0.93406977        0.04179157  S
       atom_frac         0.76733638        0.93405487        0.01022235  S
       atom_frac         0.83435572        0.06762234        0.02600568  W
       atom_frac         0.96792232        0.13464082        0.04178896  S
       atom_frac         0.96790609        0.13462649        0.01021986  S
       atom_frac         0.83435531        0.26763370        0.02600547  W
       atom_frac         0.96791778        0.33417564        0.04178933  S
       atom_frac         0.96790715        0.33417985        0.01021994  S
       atom_frac         0.83519904        0.46755374        0.02600667  W
       atom_frac         0.96785182        0.53461780        0.04183350  S
       atom_frac         0.96784239        0.53461952        0.01017839  S
       atom_frac         0.83578531        0.66834287        0.02600834  W
       atom_frac         0.96829292        0.73459616        0.04184042  S
       atom_frac         0.96827528        0.73458610        0.01017297  S
       atom_frac         0.83520014        0.86854581        0.02600712  W
       atom_frac         0.96785694        0.93413616        0.04183338  S
       atom_frac         0.96783807        0.93411697        0.01017814  S
------------------------------------------------------------

------------------------------------------------------------------------------
  Final output of selected total energy values:

  The following output summarizes some interesting total energy values
  at the end of a run (AFTER all relaxation, molecular dynamics, etc.).

  | Total energy of the DFT / Hartree-Fock s.c.f. calculation      :      -11408771.952494234 eV
  | Final zero-broadening corrected energy (caution - metals only) :      -11408771.952494234 eV
  | For reference only, the value of 1 Hartree used in FHI-aims is :             27.211384500 eV
  | For reference only, the overall average (free atom contribution
  | + realspace contribution) of the electrostatic potential after
  | s.c.f. convergence is                                          :             -1.209289944 eV

  Before relying on these values, please be sure to understand exactly which
  total energy value is referred to by a given number. Different objects may
  all carry the same name 'total energy'. Definitions:

  Total energy of the DFT / Hartree-Fock s.c.f. calculation:
  | Note that this energy does not include ANY quantities calculated after the
  | s.c.f. cycle, in particular not ANY RPA, MP2, etc. many-body perturbation terms.

  Final zero-broadening corrected energy:
  | For metallic systems only, a broadening of the occupation numbers at the Fermi
  | level can be extrapolated back to zero broadening by an electron-gas inspired
  | formula. For all systems that are not real metals, this value can be
  | meaningless and should be avoided.

------------------------------------------------------------------------------
  Methods described in the following list of references were used in this FHI-aims run.
  If you publish the results, please make sure to cite these reference if they apply.
  FHI-aims is an academic code, and for our developers (often, Ph.D. students
  and postdocs), scientific credit in the community is essential.
  Thank you for helping us!

  For any use of FHI-aims, please cite:

    Volker Blum, Ralf Gehrke, Felix Hanke, Paula Havu, Ville Havu,
    Xinguo Ren, Karsten Reuter, and Matthias Scheffler
    'Ab initio molecular simulations with numeric atom-centered orbitals'
    Computer Physics Communications 180, 2175-2196 (2009)
    http://doi.org/10.1016/j.cpc.2009.06.022


  The provided symmetry information was generated with SPGlib:

    Atsushi Togo, Yusuke Seto, Dimitar Pashov
    SPGlib 1.7.3 obtained from http://spglib.sourceforge.net
    Copyright (C) 2008 Atsushi Togo


  The ELSI infrastructure was used in your run to solve the Kohn-Sham electronic structure.
  Please check out http://elsi-interchange.org to learn more.
  If scalability is important for your project, please acknowledge ELSI by citing:

    V. W-z. Yu, F. Corsetti, A. Garcia, W. P. Huhn, M. Jacquelin, W. Jia,
    B. Lange, L. Lin, J. Lu, W. Mi, A. Seifitokaldani, A. Vazquez-Mayagoitia,
    C. Yang, H. Yang, and V. Blum
    'ELSI: A unified software interface for Kohn-Sham electronic structure solvers'
    Computer Physics Communications 222, 267-285 (2018).
    http://doi.org/10.1016/j.cpc.2017.09.007


  For the real-space grid partitioning and parallelization used in this calculation, please cite:

    Ville Havu, Volker Blum, Paula Havu, and Matthias Scheffler,
    'Efficient O(N) integration for all-electron electronic structure calculation'
    'using numerically tabulated basis functions'
    Journal of Computational Physics 228, 8367-8379 (2009).
    http://doi.org/10.1016/j.jcp.2009.08.008

  Of course, there are many other important community references, e.g., those cited in the
  above references. Our list is limited to references that describe implementations in the
  FHI-aims code. The reason is purely practical (length of this list) - please credit others as well.

   One or more s.c.f. cycles took more than 50 s.c.f. iterations.
   It might be worth adjusting your convergence settings. For example,
   metals need a larger broadening and a smaller "charge_mix_param" value than semiconductors.

------------------------------------------------------------
          Leaving FHI-aims.
          Date     :  20220916, Time     :  124049.184

          Computational steps:
          | Number of self-consistency cycles          :           50
          | Number of SCF (re)initializations          :            1
          | Number of relaxation steps                 :            0

          Detailed time accounting                     :  max(cpu_time)    wall_clock(cpu1)
          | Total time                                  :      991.626 s         991.646 s
          | Preparation time                            :        1.553 s           1.553 s
          | Boundary condition initalization            :        0.927 s           0.927 s
          | Grid partitioning                           :        1.053 s           1.053 s
          | Preloading free-atom quantities on grid     :        1.513 s           1.514 s
          | Free-atom superposition energy              :        0.040 s           0.040 s
          | Total time for integrations                 :      165.922 s         165.923 s
          | Total time for solution of K.-S. equations  :      305.770 s         305.746 s
          | Total time for EV reorthonormalization      :        0.000 s           0.000 s
          | Total time for density & force components   :      412.887 s         412.887 s
          | Total time for mixing & preconditioning     :       27.079 s          27.081 s
          | Total time for Hartree multipole update     :        0.596 s           0.589 s
          | Total time for Hartree multipole sum        :       61.076 s          61.082 s
          | Total time for total energy evaluation      :        0.077 s           0.119 s
          | Total time NSC force correction             :        2.482 s           2.481 s
          | Total time for scaled ZORA corrections      :        0.000 s           0.000 s
          | Total time for vdW correction               :       10.257 s          10.259 s

          Partial memory accounting:
          | Residual value for overall tracked memory usage across tasks:     0.000000 MB (should be 0.000000 MB)
          | Peak values for overall tracked memory usage:
          |   Minimum:      323.716 MB (on task 129 after allocating temp_ham_ovlp)
          |   Maximum:      328.188 MB (on task  44 after allocating temp_ham_ovlp)
          |   Average:      325.844 MB
          | Largest tracked array allocation:
          |   Minimum:      107.593 MB (hamiltonian on task   0)
          |   Maximum:      107.593 MB (hamiltonian on task   0)
          |   Average:      107.593 MB
          Note:  These values currently only include a subset of arrays which are explicitly tracked.
          The "true" memory usage will be greater.

          Have a nice day.
------------------------------------------------------------
