------------------------------------------------------------
          Invoking FHI-aims ...

          When using FHI-aims, please cite the following reference:

            Volker Blum, Ralf Gehrke, Felix Hanke, Paula Havu,
            Ville Havu, Xinguo Ren, Karsten Reuter, and Matthias Scheffler,
            'Ab Initio Molecular Simulations with Numeric Atom-Centered Orbitals',
            Computer Physics Communications 180, 2175-2196 (2009)

          In addition, many other developments in FHI-aims are likely important for
          your particular application. A partial list of references is given at the end of
          this file. Thank you for giving credit to the authors of these developments.

          For any questions about FHI-aims, please visit our slack channel at

            https://fhi-aims.slack.com

          and our main development and support site at

            https://aims-git.rz-berlin.mpg.de .

          The latter site, in particular, has a wiki to collect information, as well
          as an issue tracker to log discussions, suggest improvements, and report issues
          or bugs. https://aims-git.rz-berlin.mpg.de is also the main development site
          of the project and all new and updated code versions can be obtained there.
          Please send an email to aims-coordinators@fhi-berlin.mpg.de and we will add
          you to these sites. They are for you and everyone is welcome there.

------------------------------------------------------------



  Date     :  20220930, Time     :  065551.166
  Time zero on CPU 1             :   0.390452000000000E+00  s.
  Internal wall clock time zero  :           433752951.166  s.

  FHI-aims created a unique identifier for this run for later identification
  aims_uuid : 9EF8A7CA-E274-4A7E-A461-4AFD40BB8718

  Build configuration of the current instance of FHI-aims
  -------------------------------------------------------
  FHI-aims version      : 220117
  Commit number         : 0c0e6afe2
  CMake host system     : Linux-5.3.18-24.99-default
  CMake version         : 3.22.0
  Fortran compiler      : /mpcdf/soft/SLE_15/packages/x86_64/intel_oneapi/2021.4/mpi/2021.4.0/bin/mpiifort (Intel) version 2021.4.0.20210910
  Fortran compiler flags: -O3 -ip -fp-model precise
  C compiler            : /mpcdf/soft/SLE_15/packages/x86_64/intel/2021.4.0/bin/icc (Intel) version 2021.4.0.20210910
  C compiler flags      : -O3 -ip -fp-model precise
  C++ compiler          : /mpcdf/soft/SLE_15/packages/x86_64/intel/2021.4.0/bin/icpc (Intel) version 2021.4.0.20210910
  C++ compiler flags    : -O3 -ip -fp-model precise
  Using MPI
  Using ScaLAPACK
  Using LibXC
  Using i-PI
  Using RLSY
  Linking against: /mpcdf/soft/SLE_15/packages/x86_64/intel_oneapi/2021.4/mkl/latest/lib/intel64/libmkl_intel_lp64.so
                   /mpcdf/soft/SLE_15/packages/x86_64/intel_oneapi/2021.4/mkl/latest/lib/intel64/libmkl_sequential.so
                   /mpcdf/soft/SLE_15/packages/x86_64/intel_oneapi/2021.4/mkl/latest/lib/intel64/libmkl_core.so
                   /mpcdf/soft/SLE_15/packages/x86_64/intel_oneapi/2021.4/mkl/latest/lib/intel64/libmkl_blacs_intelmpi_lp64.so
                   /mpcdf/soft/SLE_15/packages/x86_64/intel_oneapi/2021.4/mkl/latest/lib/intel64/libmkl_scalapack_lp64.so

  Using      288 parallel tasks.
  Task        0 on host ravg1206 reporting.
  Task        1 on host ravg1206 reporting.
  Task        2 on host ravg1206 reporting.
  Task        3 on host ravg1206 reporting.
  Task        4 on host ravg1206 reporting.
  Task        5 on host ravg1206 reporting.
  Task        6 on host ravg1206 reporting.
  Task        7 on host ravg1206 reporting.
  Task        8 on host ravg1206 reporting.
  Task        9 on host ravg1206 reporting.
  Task       10 on host ravg1206 reporting.
  Task       11 on host ravg1206 reporting.
  Task       12 on host ravg1206 reporting.
  Task       13 on host ravg1206 reporting.
  Task       14 on host ravg1206 reporting.
  Task       15 on host ravg1206 reporting.
  Task       16 on host ravg1206 reporting.
  Task       17 on host ravg1206 reporting.
  Task       18 on host ravg1206 reporting.
  Task       19 on host ravg1206 reporting.
  Task       20 on host ravg1206 reporting.
  Task       21 on host ravg1206 reporting.
  Task       22 on host ravg1206 reporting.
  Task       23 on host ravg1206 reporting.
  Task       24 on host ravg1206 reporting.
  Task       25 on host ravg1206 reporting.
  Task       26 on host ravg1206 reporting.
  Task       27 on host ravg1206 reporting.
  Task       28 on host ravg1206 reporting.
  Task       29 on host ravg1206 reporting.
  Task       30 on host ravg1206 reporting.
  Task       31 on host ravg1206 reporting.
  Task       32 on host ravg1206 reporting.
  Task       33 on host ravg1206 reporting.
  Task       34 on host ravg1206 reporting.
  Task       35 on host ravg1206 reporting.
  Task       36 on host ravg1206 reporting.
  Task       37 on host ravg1206 reporting.
  Task       38 on host ravg1206 reporting.
  Task       39 on host ravg1206 reporting.
  Task       40 on host ravg1206 reporting.
  Task       41 on host ravg1206 reporting.
  Task       42 on host ravg1206 reporting.
  Task       43 on host ravg1206 reporting.
  Task       44 on host ravg1206 reporting.
  Task       45 on host ravg1206 reporting.
  Task       46 on host ravg1206 reporting.
  Task       47 on host ravg1206 reporting.
  Task       48 on host ravg1206 reporting.
  Task       49 on host ravg1206 reporting.
  Task       50 on host ravg1206 reporting.
  Task       51 on host ravg1206 reporting.
  Task       52 on host ravg1206 reporting.
  Task       53 on host ravg1206 reporting.
  Task       54 on host ravg1206 reporting.
  Task       55 on host ravg1206 reporting.
  Task       56 on host ravg1206 reporting.
  Task       57 on host ravg1206 reporting.
  Task       58 on host ravg1206 reporting.
  Task       59 on host ravg1206 reporting.
  Task       60 on host ravg1206 reporting.
  Task       61 on host ravg1206 reporting.
  Task       62 on host ravg1206 reporting.
  Task       63 on host ravg1206 reporting.
  Task       64 on host ravg1206 reporting.
  Task       65 on host ravg1206 reporting.
  Task       66 on host ravg1206 reporting.
  Task       67 on host ravg1206 reporting.
  Task       68 on host ravg1206 reporting.
  Task       69 on host ravg1206 reporting.
  Task       70 on host ravg1206 reporting.
  Task       71 on host ravg1206 reporting.
  Task       72 on host ravg1208 reporting.
  Task       73 on host ravg1208 reporting.
  Task       74 on host ravg1208 reporting.
  Task       75 on host ravg1208 reporting.
  Task       76 on host ravg1208 reporting.
  Task       77 on host ravg1208 reporting.
  Task       78 on host ravg1208 reporting.
  Task       79 on host ravg1208 reporting.
  Task       80 on host ravg1208 reporting.
  Task       81 on host ravg1208 reporting.
  Task       82 on host ravg1208 reporting.
  Task       83 on host ravg1208 reporting.
  Task       84 on host ravg1208 reporting.
  Task       85 on host ravg1208 reporting.
  Task       86 on host ravg1208 reporting.
  Task       87 on host ravg1208 reporting.
  Task       88 on host ravg1208 reporting.
  Task       89 on host ravg1208 reporting.
  Task       90 on host ravg1208 reporting.
  Task       91 on host ravg1208 reporting.
  Task       92 on host ravg1208 reporting.
  Task       93 on host ravg1208 reporting.
  Task       94 on host ravg1208 reporting.
  Task       95 on host ravg1208 reporting.
  Task       96 on host ravg1208 reporting.
  Task       97 on host ravg1208 reporting.
  Task       98 on host ravg1208 reporting.
  Task       99 on host ravg1208 reporting.
  Task      100 on host ravg1208 reporting.
  Task      101 on host ravg1208 reporting.
  Task      102 on host ravg1208 reporting.
  Task      103 on host ravg1208 reporting.
  Task      104 on host ravg1208 reporting.
  Task      105 on host ravg1208 reporting.
  Task      106 on host ravg1208 reporting.
  Task      107 on host ravg1208 reporting.
  Task      108 on host ravg1208 reporting.
  Task      109 on host ravg1208 reporting.
  Task      110 on host ravg1208 reporting.
  Task      111 on host ravg1208 reporting.
  Task      112 on host ravg1208 reporting.
  Task      113 on host ravg1208 reporting.
  Task      114 on host ravg1208 reporting.
  Task      115 on host ravg1208 reporting.
  Task      116 on host ravg1208 reporting.
  Task      117 on host ravg1208 reporting.
  Task      118 on host ravg1208 reporting.
  Task      119 on host ravg1208 reporting.
  Task      120 on host ravg1208 reporting.
  Task      121 on host ravg1208 reporting.
  Task      122 on host ravg1208 reporting.
  Task      123 on host ravg1208 reporting.
  Task      124 on host ravg1208 reporting.
  Task      125 on host ravg1208 reporting.
  Task      126 on host ravg1208 reporting.
  Task      127 on host ravg1208 reporting.
  Task      128 on host ravg1208 reporting.
  Task      129 on host ravg1208 reporting.
  Task      130 on host ravg1208 reporting.
  Task      131 on host ravg1208 reporting.
  Task      132 on host ravg1208 reporting.
  Task      133 on host ravg1208 reporting.
  Task      134 on host ravg1208 reporting.
  Task      135 on host ravg1208 reporting.
  Task      136 on host ravg1208 reporting.
  Task      137 on host ravg1208 reporting.
  Task      138 on host ravg1208 reporting.
  Task      139 on host ravg1208 reporting.
  Task      140 on host ravg1208 reporting.
  Task      141 on host ravg1208 reporting.
  Task      142 on host ravg1208 reporting.
  Task      143 on host ravg1208 reporting.
  Task      144 on host ravg1212 reporting.
  Task      145 on host ravg1212 reporting.
  Task      146 on host ravg1212 reporting.
  Task      147 on host ravg1212 reporting.
  Task      148 on host ravg1212 reporting.
  Task      149 on host ravg1212 reporting.
  Task      150 on host ravg1212 reporting.
  Task      151 on host ravg1212 reporting.
  Task      152 on host ravg1212 reporting.
  Task      153 on host ravg1212 reporting.
  Task      154 on host ravg1212 reporting.
  Task      155 on host ravg1212 reporting.
  Task      156 on host ravg1212 reporting.
  Task      157 on host ravg1212 reporting.
  Task      158 on host ravg1212 reporting.
  Task      159 on host ravg1212 reporting.
  Task      160 on host ravg1212 reporting.
  Task      161 on host ravg1212 reporting.
  Task      162 on host ravg1212 reporting.
  Task      163 on host ravg1212 reporting.
  Task      164 on host ravg1212 reporting.
  Task      165 on host ravg1212 reporting.
  Task      166 on host ravg1212 reporting.
  Task      167 on host ravg1212 reporting.
  Task      168 on host ravg1212 reporting.
  Task      169 on host ravg1212 reporting.
  Task      170 on host ravg1212 reporting.
  Task      171 on host ravg1212 reporting.
  Task      172 on host ravg1212 reporting.
  Task      173 on host ravg1212 reporting.
  Task      174 on host ravg1212 reporting.
  Task      175 on host ravg1212 reporting.
  Task      176 on host ravg1212 reporting.
  Task      177 on host ravg1212 reporting.
  Task      178 on host ravg1212 reporting.
  Task      179 on host ravg1212 reporting.
  Task      180 on host ravg1212 reporting.
  Task      181 on host ravg1212 reporting.
  Task      182 on host ravg1212 reporting.
  Task      183 on host ravg1212 reporting.
  Task      184 on host ravg1212 reporting.
  Task      185 on host ravg1212 reporting.
  Task      186 on host ravg1212 reporting.
  Task      187 on host ravg1212 reporting.
  Task      188 on host ravg1212 reporting.
  Task      189 on host ravg1212 reporting.
  Task      190 on host ravg1212 reporting.
  Task      191 on host ravg1212 reporting.
  Task      192 on host ravg1212 reporting.
  Task      193 on host ravg1212 reporting.
  Task      194 on host ravg1212 reporting.
  Task      195 on host ravg1212 reporting.
  Task      196 on host ravg1212 reporting.
  Task      197 on host ravg1212 reporting.
  Task      198 on host ravg1212 reporting.
  Task      199 on host ravg1212 reporting.
  Task      200 on host ravg1212 reporting.
  Task      201 on host ravg1212 reporting.
  Task      202 on host ravg1212 reporting.
  Task      203 on host ravg1212 reporting.
  Task      204 on host ravg1212 reporting.
  Task      205 on host ravg1212 reporting.
  Task      206 on host ravg1212 reporting.
  Task      207 on host ravg1212 reporting.
  Task      208 on host ravg1212 reporting.
  Task      209 on host ravg1212 reporting.
  Task      210 on host ravg1212 reporting.
  Task      211 on host ravg1212 reporting.
  Task      212 on host ravg1212 reporting.
  Task      213 on host ravg1212 reporting.
  Task      214 on host ravg1212 reporting.
  Task      215 on host ravg1212 reporting.
  Task      216 on host ravg1213 reporting.
  Task      217 on host ravg1213 reporting.
  Task      218 on host ravg1213 reporting.
  Task      219 on host ravg1213 reporting.
  Task      220 on host ravg1213 reporting.
  Task      221 on host ravg1213 reporting.
  Task      222 on host ravg1213 reporting.
  Task      223 on host ravg1213 reporting.
  Task      224 on host ravg1213 reporting.
  Task      225 on host ravg1213 reporting.
  Task      226 on host ravg1213 reporting.
  Task      227 on host ravg1213 reporting.
  Task      228 on host ravg1213 reporting.
  Task      229 on host ravg1213 reporting.
  Task      230 on host ravg1213 reporting.
  Task      231 on host ravg1213 reporting.
  Task      232 on host ravg1213 reporting.
  Task      233 on host ravg1213 reporting.
  Task      234 on host ravg1213 reporting.
  Task      235 on host ravg1213 reporting.
  Task      236 on host ravg1213 reporting.
  Task      237 on host ravg1213 reporting.
  Task      238 on host ravg1213 reporting.
  Task      239 on host ravg1213 reporting.
  Task      240 on host ravg1213 reporting.
  Task      241 on host ravg1213 reporting.
  Task      242 on host ravg1213 reporting.
  Task      243 on host ravg1213 reporting.
  Task      244 on host ravg1213 reporting.
  Task      245 on host ravg1213 reporting.
  Task      246 on host ravg1213 reporting.
  Task      247 on host ravg1213 reporting.
  Task      248 on host ravg1213 reporting.
  Task      249 on host ravg1213 reporting.
  Task      250 on host ravg1213 reporting.
  Task      251 on host ravg1213 reporting.
  Task      252 on host ravg1213 reporting.
  Task      253 on host ravg1213 reporting.
  Task      254 on host ravg1213 reporting.
  Task      255 on host ravg1213 reporting.
  Task      256 on host ravg1213 reporting.
  Task      257 on host ravg1213 reporting.
  Task      258 on host ravg1213 reporting.
  Task      259 on host ravg1213 reporting.
  Task      260 on host ravg1213 reporting.
  Task      261 on host ravg1213 reporting.
  Task      262 on host ravg1213 reporting.
  Task      263 on host ravg1213 reporting.
  Task      264 on host ravg1213 reporting.
  Task      265 on host ravg1213 reporting.
  Task      266 on host ravg1213 reporting.
  Task      267 on host ravg1213 reporting.
  Task      268 on host ravg1213 reporting.
  Task      269 on host ravg1213 reporting.
  Task      270 on host ravg1213 reporting.
  Task      271 on host ravg1213 reporting.
  Task      272 on host ravg1213 reporting.
  Task      273 on host ravg1213 reporting.
  Task      274 on host ravg1213 reporting.
  Task      275 on host ravg1213 reporting.
  Task      276 on host ravg1213 reporting.
  Task      277 on host ravg1213 reporting.
  Task      278 on host ravg1213 reporting.
  Task      279 on host ravg1213 reporting.
  Task      280 on host ravg1213 reporting.
  Task      281 on host ravg1213 reporting.
  Task      282 on host ravg1213 reporting.
  Task      283 on host ravg1213 reporting.
  Task      284 on host ravg1213 reporting.
  Task      285 on host ravg1213 reporting.
  Task      286 on host ravg1213 reporting.
  Task      287 on host ravg1213 reporting.

  Performing system and environment tests:
  | Environment variable OMP_NUM_THREADS correctly set to 1.
  | Checking for ScaLAPACK...
  | Testing pdtran()...
  | All pdtran() tests passed.

  Obtaining array dimensions for all initial allocations:
  
  -----------------------------------------------------------------------
  Parsing control.in (first pass over file, find array dimensions only).
  The contents of control.in will be repeated verbatim below
  unless switched off by setting 'verbatim_writeout .false.' .
  in the first line of control.in .
  -----------------------------------------------------------------------
  
  xc                 hse06  0.11
  hse_unit b
  spin               collinear
  default_initial_moment 1
  charge      0.0
  relativistic       atomic_zora scalar
  #elsi_restart read
  # SCF settings
  #relax_geometry bfgs 1E-3
  #relax_unit_cell fixed_angles
  use_symmetric_forces .true.
  occupation_type gaussian       0.1
  # k-grid settings  (to be adjusted)
  k_grid  4 4 1
  #empty_states 8
  use_dipole_correction
  include_spin_orbit non_self_consistent
  # sc_accuracy_rho    1E-4
  #    sc_accuracy_eev    1E-3
  #    sc_accuracy_etot   1E-4
  #    sc_accuracy_forces 1E-2
  output dos_tetrahedron -10 0 2001 0.1
  output species_proj_dos_tetrahedron -10 0 2001 0.1
  
  many_body_dispersion_nl    beta=0.83
  ################################################################################
  #
  #  FHI-aims code project
  #  Volker Blum, 2018
  #
  #  Suggested "intermediate" defaults for Se atom (to be pasted into control.in file)
  #
  #  2020/09/15 These "intermediate" settings are identical to past "tight" defaults
  #             and differ only in the "g" function that is now included in "tight".
  #
  ################################################################################
    species        Se
  #     global species definitions
      nucleus             34
      mass                78.96
  #
      l_hartree           6
  #
      cut_pot             4.0          2.0  1.0
      basis_dep_cutoff    1e-4
  #
      radial_base         55 7.0
      radial_multiplier   2
      angular_grids       specified
        division   0.0830  110
        division   0.1357  194
        division   0.7377  302
        division   0.8610  434
  #      division   0.9640  590
  #      division   1.0773  770
  #      division   2.5539  974
  #      outer_grid  974
        outer_grid  434
  ################################################################################
  #
  #  Definition of "minimal" basis
  #
  ################################################################################
  #     valence basis states
      valence      4  s   2.
      valence      4  p   4.
      valence      3  d  10.
  #     ion occupancy
      ion_occ      4  s   1.
      ion_occ      4  p   3.
      ion_occ      3  d  10.
  ################################################################################
  #
  #  Suggested additional basis functions. For production calculations,
  #  uncomment them one after another (the most important basis functions are
  #  listed first).
  #
  #  Constructed for dimers: 1.85 A, 2.15 A, 2.50 A, 3.00 A, 4.00 A
  #
  ################################################################################
  #  "First tier" - improvements: -336.21 meV to -36.85 meV
       hydro 3 d 4.3
       hydro 2 p 1.6
       hydro 4 f 7.2
       ionic 4 s auto
  #  "Second tier" - improvements: -14.39 meV to -1.49 meV
  #     hydro 5 g 10.4
  #     hydro 4 p 4.5
  #     hydro 4 d 6.2
  #     hydro 4 f 11.2
  #     hydro 1 s 0.65
  #     hydro 6 h 15.2
  #  "Third tier" - improvements: -0.46 meV and below
  #     hydro 5 g 14.4
  #     ionic 4 d auto
  #     hydro 4 f 22.4
  #     hydro 5 f 7.4
  #     hydro 5 p 8
  #     hydro 5 s 9.4
  #  "Fourth tier" - improvements: -0.12 meV and below
  #     hydro 5 d 11.6
  #     hydro 6 h 18
  #     hydro 4 p 4
  #     hydro 5 f 16
  #     hydro 4 s 3.9
  
  
  ################################################################################
  #
  #  FHI-aims code project
  #  Volker Blum, 2018
  #
  #  Suggested "intermediate" defaults for S atom (to be pasted into control.in file)
  #
  ################################################################################
    species        S
  #     global species definitions
      nucleus             16
      mass                32.065
  #
      l_hartree           6
  #
      cut_pot             4.0          2.0  1.0
      basis_dep_cutoff    1e-4
  #
      radial_base         44 7.0
      radial_multiplier   2
      angular_grids       specified
        division   0.4665  110
        division   0.5810  194
        division   0.7139  302
        division   0.8274  434
  #      division   0.9105  590
  #      division   1.0975  770
  #      division   1.2028  974
  #      outer_grid  974
        outer_grid  434
  ################################################################################
  #
  #  Definition of "minimal" basis
  #
  ################################################################################
  #     valence basis states
      valence      3  s   2.
      valence      3  p   4.
  #     ion occupancy
      ion_occ      3  s   1.
      ion_occ      3  p   3.
  ################################################################################
  #
  #  Suggested additional basis functions. For production calculations,
  #  uncomment them one after another (the most important basis functions are
  #  listed first).
  #
  #  Constructed for dimers: 1.6 A, 1.9 A, 2.5 A, 3.25 A, 4.0 A
  #
  ################################################################################
  #  "First tier" - improvements: -652.81 meV to -45.53 meV
       ionic 3 d auto
       hydro 2 p 1.8
       hydro 4 f 7
       ionic 3 s auto
  #  "Second tier" - improvements: -30.20 meV to -1.74 meV
  #     hydro 4 d 6.2
  for_aux     hydro 5 g 10.8
  #     hydro 4 p 4.9
  #     hydro 5 f 10
  #     hydro 1 s 0.8
  #  "Third tier" - improvements: -1.04 meV to -0.20 meV
  #     hydro 3 d 3.9
  #     hydro 3 d 2.7
  #     hydro 5 g 12
  #     hydro 4 p 10.4
  #     hydro 5 f 12.4
  #     hydro 2 s 1.9
  #  "Fourth tier" - improvements: -0.35 meV to -0.06 meV
  #     hydro 4 d 10.4
  #     hydro 4 p 7.2
  #     hydro 4 d 10
  #     hydro 5 g 19.2
  #     hydro 4 s 12
  
  ################################################################################
  #
  #  FHI-aims code project
  # Volker Blum, Fritz Haber Institute Berlin, 2009
  #
  #  Suggested "intermediate" defaults for Mo atom (to be pasted into control.in file)
  #
  #  See https://aaltodoc.aalto.fi/handle/123456789/33620 for the report these
  #  setting are based on
  ################################################################################
    species        Mo
  #     global species definitions
      nucleus             42
      mass                95.94
  #
      l_hartree           6
  #
      cut_pot             4.0  2.0  1.0
      basis_dep_cutoff    1e-4
  #
      radial_base         59 7.0
      radial_multiplier   2
      angular_grids specified
        division   0.3117   50
        division   0.6750  110
        division   1.0351  194
        division   1.2073  302
        division   1.6402  434
  #      division   1.9185  590
  #      division   2.0237  770
  #      division   2.0980  974
  #      division   2.7972 1202
  #      outer_grid  974
        outer_grid  434
  ################################################################################
  #
  #  Definition of "minimal" basis
  #
  ################################################################################
  #     valence basis states
      valence      5  s   1.
      valence      4  p   6.
      valence      4  d   5.
  #     ion occupancy
      ion_occ     5  s   0.
      ion_occ     4  p   6.
      ion_occ     4  d   4.
  ################################################################################
  #
  #  Suggested additional basis functions. For production calculations,
  #  uncomment them one after another (the most important basis functions are
  #  listed first).
  #
  #  Constructed for dimers: 1.675 A, 1.9 A, 2.375 A, 3.00 A, 4.00 A
  #
  ################################################################################
  #  "First tier"  - max. impr. -711.23  meV, min. impr. -21.07 meV
       hydro 4 f 8.4
       hydro 3 d 2.8
       ionic 5 p auto
       for_aux hydro 5 g 12
       ionic 5 s auto
  #  "Second tier" - max. impr. -39.38  meV, min. impr. -2.68 meV
  #     hydro 4 f 12.4
  #     hydro 3 d 3.3
  #     hydro 6 h 17.2
  #     hydro 4 f 7.6
  #     hydro 3 p 3.0
  #     hydro 1 s 0.65
  #  "Third tier"  - max. impr. -5.50 meV, min. impr. -0.47 meV
  #     hydro 4 f 29.2
  #     hydro 5 g 11.2
  #     hydro 3 d 6.8
  #     hydro 6 h 14.8
  #     hydro 2 p 2.3
  #     hydro 4 s 3.8
  #  "Fourth tier"  - max. impr. -0.58 meV, min. impr. -0.19 meV
  #     hydro 5 f 6.8
  #     hydro 5 d 14.8
  #     hydro 6 s 7.8
  #     hydro 5 g 20.8
  #     hydro 5 d 10.4
  #     hydro 5 p 9.8
  #  Further functions - -0.17 meV and below
  #     hydro 5 d 3.2
  ################################################################################
  #
  #  FHI-aims code project
  #  Volker Blum, Maria Dragoumi, Sebastian Kokott 2020
  #
  #  Suggested "intermediate" defaults for W atom (to be pasted into control.in file)
  #
  ################################################################################
    species          W
  #     global species definitions
      nucleus        74
      mass           183.84
  #
      l_hartree      6
  #
      cut_pot        4.0  2.0  1.0
      basis_dep_cutoff    1e-4
  #
      radial_base    71  7.0
      radial_multiplier  2
      angular_grids specified
        division   0.2901   50
        division   0.6986  110
        division   1.0528  194
        division   1.2659  302
        division   1.5223  434
  #      division   1.8111  590
  #      division   2.0105  770
  #      division   2.0413  974
  #      division   2.8804 1202
  #      outer_grid  974
        outer_grid  434
  ################################################################################
  #
  #  Definition of "minimal" basis
  #
  ################################################################################
  #     valence basis states
      valence      6  s   2.
      valence      5  p   6.
      valence      5  d   4.
      valence      4  f  14.
  #     ion occupancy
      ion_occ      6  s   1.
      ion_occ      5  p   6.
      ion_occ      5  d   3.
      ion_occ      4  f  14.
  ################################################################################
  #
  #  Suggested additional basis functions. For production calculations,
  #  uncomment them one after another (the most important basis functions are
  #  listed first).
  #
  #  Constructed for dimers: 1.775, 1.99, 2.50, 3.25, 4.50 AA
  #
  ################################################################################
  #
  #  "First tier" - improvements: -603.77 meV to -28.99 meV
       hydro 4 f 7.8
       hydro 4 d 5.8
       ionic 6 p auto
    for_aux   hydro 5 g 12.4
       ionic 6 s auto
  #  "Second tier" - improvements: -28.30 meV to -1.31 meV
  #     hydro 6 h 16.8
  #     ionic 5 d auto
  #     hydro 4 f 8.6
  #     hydro 5 g 16.8
  #     hydro 5 d 8.4
  #     hydro 3 p 3.3
  #     hydro 1 s 0.55
  #  "Third tier" - max. impr. -1.79 meV, min. impr. -0.26 meV
  #     hydro 5 f 10.8
  #     hydro 5 g 34.4
  #     hydro 6 h 20.8
  #     hydro 5 g 12.8
  #     hydro 2 p 1.6
  #     hydro 4 s 4.7
  #     hydro 6 d 18.4
  #  "Fourth tier" -0.46 max. impr. - meV, min. impr. -0.09 meV
  #     hydro 6 h 21.6
  #     hydro 5 f 22.4
  #     hydro 4 f 4
  #     hydro 5 p 9.6
  #     hydro 6 d 17.2
  #     hydro 3 p 5.2
  #     hydro 5 g 4.7
  #     hydro 6 s 7.6
  
  -----------------------------------------------------------------------
  Completed first pass over input file control.in .
  -----------------------------------------------------------------------
  
  
  -----------------------------------------------------------------------
  Parsing geometry.in (first pass over file, find array dimensions only).
  The contents of geometry.in will be repeated verbatim below
  unless switched off by setting 'verbatim_writeout .false.' .
  in the first line of geometry.in .
  -----------------------------------------------------------------------
  
  #
  # This is the geometry file that corresponds to the current relaxation step.
  # If you do not want this file to be written, set the "write_restart_geometry" flag to .false.
  #  aims_uuid : FC3C4BBE-517F-4DD9-A3D3-7CE00F385ADD
  #
    set_vacuum_level       103.343980
  lattice_vector     16.35742505      0.00000000      0.00000000
  lattice_vector     -8.17073830     14.17072870      0.00000000
  lattice_vector      0.00000000      0.00000000    103.34910518
  atom       0.00365711      0.93802090     51.66999954 W
  atom       1.64391286      1.91255299     53.33907869 Se
  atom       1.64388933      1.91256871     50.00089696 Se
  atom      -1.62752288      3.77877074     51.67000596 W
  atom       0.01653789      4.72814610     53.34287379 Se
  atom       0.01651266      4.72811352     49.99712571 Se
  atom      -3.26884780      6.61361050     51.66999715 W
  atom      -1.60465994      7.54705391     53.33895767 Se
  atom      -1.60467724      7.54702708     50.00099060 Se
  atom      -4.91943164      9.43609262     51.66997331 W
  atom      -3.26682717     10.38001246     53.33680023 Se
  atom      -3.26683612     10.37998612     50.00309957 Se
  atom      -6.55119055     12.26617953     51.66997674 W
  atom      -4.90759016     13.22560779     53.33681159 Se
  atom      -4.90762186     13.22561629     50.00311273 Se
  atom       3.27333840      0.95798957     51.66996429 W
  atom       4.90708010      1.91613674     53.34009462 Se
  atom       4.90707091      1.91616272     49.99985622 Se
  atom       1.65999660      3.81794103     51.67000475 W
  atom       3.32449987      4.84243748     53.33133371 Se
  atom       3.32450003      4.84242118     50.00865641 Se
  atom       0.05237182      6.60704740     51.66997277 W
  atom       1.77165917      7.53672115     53.33171950 Se
  atom       1.77166213      7.53671176     50.00822190 Se
  atom      -1.61492920      9.43604970     51.66998352 W
  atom       0.03153975     10.37217268     53.34007401 Se
  atom       0.03153687     10.37215840     49.99985142 Se
  atom      -3.26554589     12.27698649     51.66992943 W
  atom      -1.62283344     13.22563956     53.33679838 Se
  atom      -1.62281862     13.22565261     50.00309930 Se
  atom       6.54015053      0.95804963     51.66994630 W
  atom       8.17014640      1.91279656     53.33899628 Se
  atom       8.17016344      1.91279576     50.00093046 Se
  atom       4.90844434      3.82661954     51.66999991 W
  atom       6.49264547      4.84290169     53.33162127 Se
  atom       6.49262047      4.84288348     50.00832561 Se
  atom       3.50618303      6.74273865     51.66995600 W
  atom       1.68541271      9.41667638     51.66995642 W
  atom       3.35709200     10.28104078     53.33168553 Se
  atom       3.35708489     10.28105476     50.00824322 Se
  atom       0.02005984     12.26608696     51.66994374 W
  atom       1.66161194     13.20083119     53.33897344 Se
  atom       1.66163197     13.20084509     50.00097660 Se
  atom       9.80973698      0.93805535     51.66995833 W
  atom      11.44695786      1.88362818     53.34100234 Se
  atom      11.44698416      1.88365479     49.99902539 Se
  atom       8.15641029      3.81837043     51.66996051 W
  atom       9.80061015      4.72820846     53.34290722 Se
  atom       9.80065675      4.72820080     49.99709078 Se
  atom       6.31331554      6.74290757     51.66994654 W
  atom       8.04877610      7.53666913     53.33163121 Se
  atom       8.04880388      7.53666185     50.00831920 Se
  atom       4.91124245      9.17484556     51.66994996 W
  atom       6.46665023     10.28150585     53.33128735 Se
  atom       6.46666066     10.28151931     50.00863686 Se
  atom       3.30365680     12.23485732     51.66997334 W
  atom       4.91339757     13.20452352     53.34286760 Se
  atom       4.91339933     13.20456207     49.99711570 Se
  atom      13.08536170      0.93227283     51.67001651 W
  atom      14.72443868      1.88360808     53.34100252 Se
  atom      14.72442858      1.88361950     49.99903548 Se
  atom      11.44400626      3.77881538     51.67001678 W
  atom      13.08728929      4.72294904     53.34103466 Se
  atom      13.08728828      4.72293024     49.99902844 Se
  atom       9.76742527      6.60708273     51.66997104 W
  atom      11.42511899      7.54706717     53.33900691 Se
  atom      11.42512218      7.54705104     50.00099322 Se
  atom       8.13778573      9.41667868     51.66998632 W
  atom       9.79220470     10.37224412     53.34009126 Se
  atom       9.79221081     10.37225234     49.99987650 Se
  atom       6.52273112     12.23525185     51.66997227 W
  atom       8.16538882     13.20098302     53.33906946 Se
  atom       8.16538652     13.20099737     50.00091759 Se
  #
  # What follows is the current estimated Hessian matrix constructed by the BFGS algorithm.
  # This is NOT the true Hessian matrix of the system.
  # If you do not want this information here, switch it off using the "hessian_to_restart_geometry" keyword.
  #
  trust_radius             0.0003226675
  hessian_file
  
  -----------------------------------------------------------------------
  Completed first pass over input file geometry.in .
  -----------------------------------------------------------------------
  

  Basic array size parameters:
  | Number of species                 :        4
  | Number of atoms                   :       73
  | Number of lattice vectors         :        3
  | Max. basis fn. angular momentum   :        4
  | Max. atomic/ionic basis occupied n:        6
  | Max. number of basis fn. types    :        3
  | Max. radial fns per species/type  :       14
  | Max. logarithmic grid size        :     1483
  | Max. radial integration grid size :      143
  | Max. angular integration grid size:      434
  | Max. angular grid division number :        8
  | Radial grid for Hartree potential :     1483
  | Number of spin channels           :        2

------------------------------------------------------------
          Reading file control.in.
------------------------------------------------------------

  XC: Using HSE-functional with OMEGA =  0.110000E+00 <units>.
  XC: For the actual units (bohr^-1 or Angstrom^-1), see below.
  hse_unit: Unit for the HSE06 hybrid functional screening parameter set to bohr^(-1).
  Spin treatment: Spin density functional theory - collinear spins.
  Initial spin moment per atom:   1.0000
  Charge =   0.000000E+00: Neutral system requested explicitly.
  Scalar relativistic treatment of kinetic energy: on-site free-atom approximation to ZORA.
  Occupation type: Gaussian broadening, width =   0.100000E+00 eV.
  Found k-point grid:         4         4         1
  Using dipole correction.
  Calculating non-self-consistent second-variational spin-orbit coupling after scf-cycle
  You have request a SOC run with spin-polarization.
  symmetry_reduced_k_grid will be turned off.
  Calculating density of states with
  | energy interval :-10.000000  0.000000
  | points & tetrahedron method :  2001
  Calculating angular-momentum projected DOS with 
  | energy interval :-10.000000  0.000000
  | points & tetrahedron :  2001
  Using libMBD for calculating MBD and TS energies
 
  Reading configuration options for species Se                  .
  | Found nuclear charge :  34.0000
  | Found atomic mass :    78.9600000000000      amu
  | Found l_max for Hartree potential  :   6
  | Found cutoff potl. onset [A], width [A], scale factor :    4.00000    2.00000    1.00000
  | Threshold for basis-dependent cutoff potential is   0.100000E-03
  | Found data for basic radial integration grid :    55 points, outermost radius =    7.000 A
  | Found multiplier for basic radial grid :   2
  | Found angular grid specification: user-specified.
  | Specified grid contains     5 separate shells.
  | Check grid settings after all constraints further below.
  | Found free-atom valence shell :  4 s   2.000
  | Found free-atom valence shell :  4 p   4.000
  | Found free-atom valence shell :  3 d  10.000
  | Found free-ion valence shell :  4 s   1.000
  | Found free-ion valence shell :  4 p   3.000
  | Found free-ion valence shell :  3 d  10.000
  | Found hydrogenic basis function :  3 d   4.300
  | Found hydrogenic basis function :  2 p   1.600
  | Found hydrogenic basis function :  4 f   7.200
  | Found ionic basis function :  4 s , default cutoff radius.
  Species Se                  : Missing cutoff potential type.
  Defaulting to exp(1/x)/(1-x)^2 type cutoff potential.
  Species Se: No 'logarithmic' tag. Using default grid for free atom:
  | Default logarithmic grid data [bohr] : 0.1000E-03 0.1000E+03 0.1012E+01
  | Will include ionic basis functions of  2.0-fold positive Se                   ion.
  Species Se: On-site basis accuracy parameter (for Gram-Schmidt orthonormalisation) not specified.
  Using default value basis_acc =  0.1000000E-03.
  Species Se                  : Using default innermost maximum threshold i_radial=  2 for radial functions.
  Species Se                  : Default cutoff onset for free atom density etc. : 0.40000000E+01 AA.
  Species Se                  : Basic radial grid will be enhanced according to radial_multiplier =   2, to contain   111 grid points.
 
  Reading configuration options for species S                   .
  | Found nuclear charge :  16.0000
  | Found atomic mass :    32.0650000000000      amu
  | Found l_max for Hartree potential  :   6
  | Found cutoff potl. onset [A], width [A], scale factor :    4.00000    2.00000    1.00000
  | Threshold for basis-dependent cutoff potential is   0.100000E-03
  | Found data for basic radial integration grid :    44 points, outermost radius =    7.000 A
  | Found multiplier for basic radial grid :   2
  | Found angular grid specification: user-specified.
  | Specified grid contains     5 separate shells.
  | Check grid settings after all constraints further below.
  | Found free-atom valence shell :  3 s   2.000
  | Found free-atom valence shell :  3 p   4.000
  | Found free-ion valence shell :  3 s   1.000
  | Found free-ion valence shell :  3 p   3.000
  | Found ionic basis function :  3 d , default cutoff radius.
  | Found hydrogenic basis function :  2 p   1.800
  | Found hydrogenic basis function :  4 f   7.000
  | Found ionic basis function :  3 s , default cutoff radius.
  | Found hydrogenic extended basis function :  5 g  10.800
  Species S                   : Missing cutoff potential type.
  Defaulting to exp(1/x)/(1-x)^2 type cutoff potential.
  Species S : No 'logarithmic' tag. Using default grid for free atom:
  | Default logarithmic grid data [bohr] : 0.1000E-03 0.1000E+03 0.1012E+01
  | Will include ionic basis functions of  2.0-fold positive S                    ion.
  Species S : On-site basis accuracy parameter (for Gram-Schmidt orthonormalisation) not specified.
  Using default value basis_acc =  0.1000000E-03.
  Species S                   : Using default innermost maximum threshold i_radial=  2 for radial functions.
  Species S                   : Default cutoff onset for free atom density etc. : 0.40000000E+01 AA.
  Species S                   : Basic radial grid will be enhanced according to radial_multiplier =   2, to contain    89 grid points.
 
  Reading configuration options for species Mo                  .
  | Found nuclear charge :  42.0000
  | Found atomic mass :    95.9400000000000      amu
  | Found l_max for Hartree potential  :   6
  | Found cutoff potl. onset [A], width [A], scale factor :    4.00000    2.00000    1.00000
  | Threshold for basis-dependent cutoff potential is   0.100000E-03
  | Found data for basic radial integration grid :    59 points, outermost radius =    7.000 A
  | Found multiplier for basic radial grid :   2
  | Found angular grid specification: user-specified.
  | Specified grid contains     6 separate shells.
  | Check grid settings after all constraints further below.
  | Found free-atom valence shell :  5 s   1.000
  | Found free-atom valence shell :  4 p   6.000
  | Found free-atom valence shell :  4 d   5.000
  | Found free-ion valence shell :  5 s   0.000
  | Found free-ion valence shell :  4 p   6.000
  | Found free-ion valence shell :  4 d   4.000
  | Found hydrogenic basis function :  4 f   8.400
  | Found hydrogenic basis function :  3 d   2.800
  | Found ionic basis function :  5 p , default cutoff radius.
  | Found hydrogenic extended basis function :  5 g  12.000
  | Found ionic basis function :  5 s , default cutoff radius.
  Species Mo                  : Missing cutoff potential type.
  Defaulting to exp(1/x)/(1-x)^2 type cutoff potential.
  Species Mo: No 'logarithmic' tag. Using default grid for free atom:
  | Default logarithmic grid data [bohr] : 0.1000E-03 0.1000E+03 0.1012E+01
  | Will include ionic basis functions of  2.0-fold positive Mo                   ion.
  Species Mo: On-site basis accuracy parameter (for Gram-Schmidt orthonormalisation) not specified.
  Using default value basis_acc =  0.1000000E-03.
  Species Mo                  : Using default innermost maximum threshold i_radial=  2 for radial functions.
  Species Mo                  : Default cutoff onset for free atom density etc. : 0.40000000E+01 AA.
  Species Mo                  : Basic radial grid will be enhanced according to radial_multiplier =   2, to contain   119 grid points.
 
  Reading configuration options for species W                   .
  | Found nuclear charge :  74.0000
  | Found atomic mass :    183.840000000000      amu
  | Found l_max for Hartree potential  :   6
  | Found cutoff potl. onset [A], width [A], scale factor :    4.00000    2.00000    1.00000
  | Threshold for basis-dependent cutoff potential is   0.100000E-03
  | Found data for basic radial integration grid :    71 points, outermost radius =    7.000 A
  | Found multiplier for basic radial grid :   2
  | Found angular grid specification: user-specified.
  | Specified grid contains     6 separate shells.
  | Check grid settings after all constraints further below.
  | Found free-atom valence shell :  6 s   2.000
  | Found free-atom valence shell :  5 p   6.000
  | Found free-atom valence shell :  5 d   4.000
  | Found free-atom valence shell :  4 f  14.000
  | Found free-ion valence shell :  6 s   1.000
  | Found free-ion valence shell :  5 p   6.000
  | Found free-ion valence shell :  5 d   3.000
  | Found free-ion valence shell :  4 f  14.000
  | Found hydrogenic basis function :  4 f   7.800
  | Found hydrogenic basis function :  4 d   5.800
  | Found ionic basis function :  6 p , default cutoff radius.
  | Found hydrogenic extended basis function :  5 g  12.400
  | Found ionic basis function :  6 s , default cutoff radius.
  Species W                   : Missing cutoff potential type.
  Defaulting to exp(1/x)/(1-x)^2 type cutoff potential.
  Species W : No 'logarithmic' tag. Using default grid for free atom:
  | Default logarithmic grid data [bohr] : 0.1000E-03 0.1000E+03 0.1012E+01
  | Will include ionic basis functions of  2.0-fold positive W                    ion.
  Species W : On-site basis accuracy parameter (for Gram-Schmidt orthonormalisation) not specified.
  Using default value basis_acc =  0.1000000E-03.
  Species W                   : Using default innermost maximum threshold i_radial=  2 for radial functions.
  Species W                   : Default cutoff onset for free atom density etc. : 0.40000000E+01 AA.
  Species W                   : Basic radial grid will be enhanced according to radial_multiplier =   2, to contain   143 grid points.
 
  Finished reading input file 'control.in'.
 
------------------------------------------------------------


------------------------------------------------------------
          Reading geometry description geometry.in.
------------------------------------------------------------
  Vacuum level in z-axis :   0.103344E+03
  Found keyword 'hessian_file', indicating that this is the continuation of a structure optimization.
  However, the control.in file does not request the geometry to be optimized.
  Ignoring the request for a file 'hessian.aims' to be present.
  | The smallest distance between any two atoms is         2.51008785 AA.
  | The first atom of this pair is atom number                     54 .
  | The second atom of this pair is atom number                    68 .
  | Wigner-Seitz cell of the first atom image           0     0     1 .
  | (The Wigner-Seitz cell of the second atom is 0 0 0  by definition.)

  Symmetry information by spglib:
  | Precision set to  0.1E-04
  | Number of Operations  : 1
  | Space group           : 1
  | International         : P1
  | Schoenflies           : C1^1
  Input structure read successfully.
  The structure contains       73 atoms,  and a total of       3482.000 electrons.

  Input geometry:
  | Unit cell:
  |       16.35742505        0.00000000        0.00000000
  |       -8.17073830       14.17072870        0.00000000
  |        0.00000000        0.00000000      103.34910518
  | Atomic structure:
  |       Atom                x [A]            y [A]            z [A]
  |    1: Species W             0.00365711        0.93802090       51.66999954
  |    2: Species Se            1.64391286        1.91255299       53.33907869
  |    3: Species Se            1.64388933        1.91256871       50.00089696
  |    4: Species W            -1.62752288        3.77877074       51.67000596
  |    5: Species Se            0.01653789        4.72814610       53.34287379
  |    6: Species Se            0.01651266        4.72811352       49.99712571
  |    7: Species W            -3.26884780        6.61361050       51.66999715
  |    8: Species Se           -1.60465994        7.54705391       53.33895767
  |    9: Species Se           -1.60467724        7.54702708       50.00099060
  |   10: Species W            -4.91943164        9.43609262       51.66997331
  |   11: Species Se           -3.26682717       10.38001246       53.33680023
  |   12: Species Se           -3.26683612       10.37998612       50.00309957
  |   13: Species W            -6.55119055       12.26617953       51.66997674
  |   14: Species Se           -4.90759016       13.22560779       53.33681159
  |   15: Species Se           -4.90762186       13.22561629       50.00311273
  |   16: Species W             3.27333840        0.95798957       51.66996429
  |   17: Species Se            4.90708010        1.91613674       53.34009462
  |   18: Species Se            4.90707091        1.91616272       49.99985622
  |   19: Species W             1.65999660        3.81794103       51.67000475
  |   20: Species Se            3.32449987        4.84243748       53.33133371
  |   21: Species Se            3.32450003        4.84242118       50.00865641
  |   22: Species W             0.05237182        6.60704740       51.66997277
  |   23: Species Se            1.77165917        7.53672115       53.33171950
  |   24: Species Se            1.77166213        7.53671176       50.00822190
  |   25: Species W            -1.61492920        9.43604970       51.66998352
  |   26: Species Se            0.03153975       10.37217268       53.34007401
  |   27: Species Se            0.03153687       10.37215840       49.99985142
  |   28: Species W            -3.26554589       12.27698649       51.66992943
  |   29: Species Se           -1.62283344       13.22563956       53.33679838
  |   30: Species Se           -1.62281862       13.22565261       50.00309930
  |   31: Species W             6.54015053        0.95804963       51.66994630
  |   32: Species Se            8.17014640        1.91279656       53.33899628
  |   33: Species Se            8.17016344        1.91279576       50.00093046
  |   34: Species W             4.90844434        3.82661954       51.66999991
  |   35: Species Se            6.49264547        4.84290169       53.33162127
  |   36: Species Se            6.49262047        4.84288348       50.00832561
  |   37: Species W             3.50618303        6.74273865       51.66995600
  |   38: Species W             1.68541271        9.41667638       51.66995642
  |   39: Species Se            3.35709200       10.28104078       53.33168553
  |   40: Species Se            3.35708489       10.28105476       50.00824322
  |   41: Species W             0.02005984       12.26608696       51.66994374
  |   42: Species Se            1.66161194       13.20083119       53.33897344
  |   43: Species Se            1.66163197       13.20084509       50.00097660
  |   44: Species W             9.80973698        0.93805535       51.66995833
  |   45: Species Se           11.44695786        1.88362818       53.34100234
  |   46: Species Se           11.44698416        1.88365479       49.99902539
  |   47: Species W             8.15641029        3.81837043       51.66996051
  |   48: Species Se            9.80061015        4.72820846       53.34290722
  |   49: Species Se            9.80065675        4.72820080       49.99709078
  |   50: Species W             6.31331554        6.74290757       51.66994654
  |   51: Species Se            8.04877610        7.53666913       53.33163121
  |   52: Species Se            8.04880388        7.53666185       50.00831920
  |   53: Species W             4.91124245        9.17484556       51.66994996
  |   54: Species Se            6.46665023       10.28150585       53.33128735
  |   55: Species Se            6.46666066       10.28151931       50.00863686
  |   56: Species W             3.30365680       12.23485732       51.66997334
  |   57: Species Se            4.91339757       13.20452352       53.34286760
  |   58: Species Se            4.91339933       13.20456207       49.99711570
  |   59: Species W            13.08536170        0.93227283       51.67001651
  |   60: Species Se           14.72443868        1.88360808       53.34100252
  |   61: Species Se           14.72442858        1.88361950       49.99903548
  |   62: Species W            11.44400626        3.77881538       51.67001678
  |   63: Species Se           13.08728929        4.72294904       53.34103466
  |   64: Species Se           13.08728828        4.72293024       49.99902844
  |   65: Species W             9.76742527        6.60708273       51.66997104
  |   66: Species Se           11.42511899        7.54706717       53.33900691
  |   67: Species Se           11.42512218        7.54705104       50.00099322
  |   68: Species W             8.13778573        9.41667868       51.66998632
  |   69: Species Se            9.79220470       10.37224412       53.34009126
  |   70: Species Se            9.79221081       10.37225234       49.99987650
  |   71: Species W             6.52273112       12.23525185       51.66997227
  |   72: Species Se            8.16538882       13.20098302       53.33906946
  |   73: Species Se            8.16538652       13.20099737       50.00091759

  Lattice parameters for 3D lattice (in Angstroms) :    16.357425   16.357583  103.349105
  Angle(s) between unit vectors (in degrees)       :    90.000000   90.000000  119.967434


  Quantities derived from the lattice vectors:
  | Reciprocal lattice vector 1:  0.384118  0.221480  0.000000
  | Reciprocal lattice vector 2: -0.000000  0.443392  0.000000
  | Reciprocal lattice vector 3:  0.000000  0.000000  0.060796
  | Unit cell volume                               :   0.239560E+05  A^3

  Fractional coordinates:
                         L1                L2                L3
       atom_frac         0.03328844        0.06619426        0.49995594  W
       atom_frac         0.16791621        0.13496504        0.51610586  Se
       atom_frac         0.16791533        0.13496615        0.48380580  Se
       atom_frac         0.03370265        0.26666030        0.49995601  W
       atom_frac         0.16767629        0.33365582        0.51614258  Se
       atom_frac         0.16767359        0.33365352        0.48376931  Se
       atom_frac         0.03328834        0.46670927        0.49995592  W
       atom_frac         0.16793083        0.53258051        0.51610469  Se
       atom_frac         0.16792883        0.53257862        0.48380671  Se
       atom_frac         0.03187239        0.66588620        0.49995569  W
       atom_frac         0.16617603        0.73249673        0.51608381  Se
       atom_frac         0.16617455        0.73249487        0.48382712  Se
       atom_frac         0.03187535        0.86559977        0.49995572  W
       atom_frac         0.16617520        0.93330471        0.51608392  Se
       atom_frac         0.16617356        0.93330531        0.48382724  Se
       atom_frac         0.23388205        0.06760341        0.49995560  W
       atom_frac         0.36753404        0.13521794        0.51611569  Se
       atom_frac         0.36753439        0.13521977        0.48379573  Se
       atom_frac         0.23606365        0.26942447        0.49995600  W
       atom_frac         0.37393501        0.34172113        0.51603092  Se
       atom_frac         0.37393444        0.34171998        0.48388088  Se
       atom_frac         0.23609749        0.46624613        0.49995569  W
       atom_frac         0.37397557        0.53185135        0.51603465  Se
       atom_frac         0.37397542        0.53185068        0.48387668  Se
       atom_frac         0.23388937        0.66588317        0.49995579  W
       atom_frac         0.36754309        0.73194349        0.51611549  Se
       atom_frac         0.36754241        0.73194249        0.48379569  Se
       atom_frac         0.23312193        0.86636240        0.49995527  W
       atom_frac         0.36698768        0.93330695        0.51608379  Se
       atom_frac         0.36698904        0.93330787        0.48382711  Se
       atom_frac         0.43359850        0.06760765        0.49995543  W
       atom_frac         0.56690163        0.13498223        0.51610506  Se
       atom_frac         0.56690264        0.13498217        0.48380613  Se
       atom_frac         0.43496119        0.27003689        0.49995595  W
       atom_frac         0.56763378        0.34175389        0.51603370  Se
       atom_frac         0.56763161        0.34175261        0.48387768  Se
       atom_frac         0.45202694        0.47582159        0.49995552  W
       atom_frac         0.43497062        0.66451603        0.49995553  W
       atom_frac         0.56763609        0.72551250        0.51603432  Se
       atom_frac         0.56763615        0.72551348        0.48387689  Se
       atom_frac         0.43360099        0.86559324        0.49995541  W
       atom_frac         0.56690551        0.93155627        0.51610484  Se
       atom_frac         0.56690723        0.93155725        0.48380657  Se
       atom_frac         0.63277764        0.06619669        0.49995555  W
       atom_frac         0.76619908        0.13292388        0.51612447  Se
       atom_frac         0.76620163        0.13292575        0.48378770  Se
       atom_frac         0.63323259        0.26945477        0.49995557  W
       atom_frac         0.76582105        0.33366022        0.51614290  Se
       atom_frac         0.76582363        0.33365968        0.48376898  Se
       atom_frac         0.62364502        0.47583351        0.49995543  W
       atom_frac         0.75772099        0.53184768        0.51603380  Se
       atom_frac         0.75772243        0.53184716        0.48387762  Se
       atom_frac         0.62365508        0.64745051        0.49995547  W
       atom_frac         0.75775320        0.72554532        0.51603047  Se
       atom_frac         0.75775431        0.72554627        0.48388070  Se
       atom_frac         0.63324061        0.86338943        0.49995569  W
       atom_frac         0.76583136        0.93181683        0.51614252  Se
       atom_frac         0.76583282        0.93181955        0.48376922  Se
       atom_frac         0.83282689        0.06578863        0.49995611  W
       atom_frac         0.96656492        0.13292246        0.51612447  Se
       atom_frac         0.96656471        0.13292326        0.48378779  Se
       atom_frac         0.83282323        0.26666345        0.49995611  W
       atom_frac         0.96656454        0.33328907        0.51612478  Se
       atom_frac         0.96656382        0.33328775        0.48378772  Se
       atom_frac         0.83002188        0.46624862        0.49995567  W
       atom_frac         0.96449793        0.53258145        0.51610516  Se
       atom_frac         0.96449756        0.53258031        0.48380674  Se
       atom_frac         0.82943211        0.66451619        0.49995582  W
       atom_frac         0.96425719        0.73194854        0.51611566  Se
       atom_frac         0.96425785        0.73194912        0.48379593  Se
       atom_frac         0.83005043        0.86341727        0.49995568  W
       atom_frac         0.96451482        0.93156699        0.51610577  Se
       atom_frac         0.96451518        0.93156800        0.48380600  Se

  Initial moments and charges:
  |  Atom   Moment         Charge        Species
  |     1   0.100000E+01   0.000000E+00   W
  |     2   0.100000E+01   0.000000E+00   Se
  |     3   0.100000E+01   0.000000E+00   Se
  |     4   0.100000E+01   0.000000E+00   W
  |     5   0.100000E+01   0.000000E+00   Se
  |     6   0.100000E+01   0.000000E+00   Se
  |     7   0.100000E+01   0.000000E+00   W
  |     8   0.100000E+01   0.000000E+00   Se
  |     9   0.100000E+01   0.000000E+00   Se
  |    10   0.100000E+01   0.000000E+00   W
  |    11   0.100000E+01   0.000000E+00   Se
  |    12   0.100000E+01   0.000000E+00   Se
  |    13   0.100000E+01   0.000000E+00   W
  |    14   0.100000E+01   0.000000E+00   Se
  |    15   0.100000E+01   0.000000E+00   Se
  |    16   0.100000E+01   0.000000E+00   W
  |    17   0.100000E+01   0.000000E+00   Se
  |    18   0.100000E+01   0.000000E+00   Se
  |    19   0.100000E+01   0.000000E+00   W
  |    20   0.100000E+01   0.000000E+00   Se
  |    21   0.100000E+01   0.000000E+00   Se
  |    22   0.100000E+01   0.000000E+00   W
  |    23   0.100000E+01   0.000000E+00   Se
  |    24   0.100000E+01   0.000000E+00   Se
  |    25   0.100000E+01   0.000000E+00   W
  |    26   0.100000E+01   0.000000E+00   Se
  |    27   0.100000E+01   0.000000E+00   Se
  |    28   0.100000E+01   0.000000E+00   W
  |    29   0.100000E+01   0.000000E+00   Se
  |    30   0.100000E+01   0.000000E+00   Se
  |    31   0.100000E+01   0.000000E+00   W
  |    32   0.100000E+01   0.000000E+00   Se
  |    33   0.100000E+01   0.000000E+00   Se
  |    34   0.100000E+01   0.000000E+00   W
  |    35   0.100000E+01   0.000000E+00   Se
  |    36   0.100000E+01   0.000000E+00   Se
  |    37   0.100000E+01   0.000000E+00   W
  |    38   0.100000E+01   0.000000E+00   W
  |    39   0.100000E+01   0.000000E+00   Se
  |    40   0.100000E+01   0.000000E+00   Se
  |    41   0.100000E+01   0.000000E+00   W
  |    42   0.100000E+01   0.000000E+00   Se
  |    43   0.100000E+01   0.000000E+00   Se
  |    44   0.100000E+01   0.000000E+00   W
  |    45   0.100000E+01   0.000000E+00   Se
  |    46   0.100000E+01   0.000000E+00   Se
  |    47   0.100000E+01   0.000000E+00   W
  |    48   0.100000E+01   0.000000E+00   Se
  |    49   0.100000E+01   0.000000E+00   Se
  |    50   0.100000E+01   0.000000E+00   W
  |    51   0.100000E+01   0.000000E+00   Se
  |    52   0.100000E+01   0.000000E+00   Se
  |    53   0.100000E+01   0.000000E+00   W
  |    54   0.100000E+01   0.000000E+00   Se
  |    55   0.100000E+01   0.000000E+00   Se
  |    56   0.100000E+01   0.000000E+00   W
  |    57   0.100000E+01   0.000000E+00   Se
  |    58   0.100000E+01   0.000000E+00   Se
  |    59   0.100000E+01   0.000000E+00   W
  |    60   0.100000E+01   0.000000E+00   Se
  |    61   0.100000E+01   0.000000E+00   Se
  |    62   0.100000E+01   0.000000E+00   W
  |    63   0.100000E+01   0.000000E+00   Se
  |    64   0.100000E+01   0.000000E+00   Se
  |    65   0.100000E+01   0.000000E+00   W
  |    66   0.100000E+01   0.000000E+00   Se
  |    67   0.100000E+01   0.000000E+00   Se
  |    68   0.100000E+01   0.000000E+00   W
  |    69   0.100000E+01   0.000000E+00   Se
  |    70   0.100000E+01   0.000000E+00   Se
  |    71   0.100000E+01   0.000000E+00   W
  |    72   0.100000E+01   0.000000E+00   Se
  |    73   0.100000E+01   0.000000E+00   Se

 
  Finished reading input file 'control.in'.
 

------------------------------------------------------------
          Reading geometry description geometry.in.
------------------------------------------------------------
 
  Consistency checks for stacksize environment parameter are next.
 
  | Maximum stacksize for task 0: unlimited
  | Maximum stacksize for task 1: unlimited
  | Maximum stacksize for task 2: unlimited
  | Maximum stacksize for task 3: unlimited
  | Maximum stacksize for task 4: unlimited
  | Maximum stacksize for task 5: unlimited
  | Maximum stacksize for task 6: unlimited
  | Maximum stacksize for task 7: unlimited
  | Maximum stacksize for task 8: unlimited
  | Maximum stacksize for task 9: unlimited
  | Maximum stacksize for task 10: unlimited
  | Maximum stacksize for task 11: unlimited
  | Maximum stacksize for task 12: unlimited
  | Maximum stacksize for task 13: unlimited
  | Maximum stacksize for task 14: unlimited
  | Maximum stacksize for task 15: unlimited
  | Maximum stacksize for task 16: unlimited
  | Maximum stacksize for task 17: unlimited
  | Maximum stacksize for task 18: unlimited
  | Maximum stacksize for task 19: unlimited
  | Maximum stacksize for task 20: unlimited
  | Maximum stacksize for task 21: unlimited
  | Maximum stacksize for task 22: unlimited
  | Maximum stacksize for task 23: unlimited
  | Maximum stacksize for task 24: unlimited
  | Maximum stacksize for task 25: unlimited
  | Maximum stacksize for task 26: unlimited
  | Maximum stacksize for task 27: unlimited
  | Maximum stacksize for task 28: unlimited
  | Maximum stacksize for task 29: unlimited
  | Maximum stacksize for task 30: unlimited
  | Maximum stacksize for task 31: unlimited
  | Maximum stacksize for task 32: unlimited
  | Maximum stacksize for task 33: unlimited
  | Maximum stacksize for task 34: unlimited
  | Maximum stacksize for task 35: unlimited
  | Maximum stacksize for task 36: unlimited
  | Maximum stacksize for task 37: unlimited
  | Maximum stacksize for task 38: unlimited
  | Maximum stacksize for task 39: unlimited
  | Maximum stacksize for task 40: unlimited
  | Maximum stacksize for task 41: unlimited
  | Maximum stacksize for task 42: unlimited
  | Maximum stacksize for task 43: unlimited
  | Maximum stacksize for task 44: unlimited
  | Maximum stacksize for task 45: unlimited
  | Maximum stacksize for task 46: unlimited
  | Maximum stacksize for task 47: unlimited
  | Maximum stacksize for task 48: unlimited
  | Maximum stacksize for task 49: unlimited
  | Maximum stacksize for task 50: unlimited
  | Maximum stacksize for task 51: unlimited
  | Maximum stacksize for task 52: unlimited
  | Maximum stacksize for task 53: unlimited
  | Maximum stacksize for task 54: unlimited
  | Maximum stacksize for task 55: unlimited
  | Maximum stacksize for task 56: unlimited
  | Maximum stacksize for task 57: unlimited
  | Maximum stacksize for task 58: unlimited
  | Maximum stacksize for task 59: unlimited
  | Maximum stacksize for task 60: unlimited
  | Maximum stacksize for task 61: unlimited
  | Maximum stacksize for task 62: unlimited
  | Maximum stacksize for task 63: unlimited
  | Maximum stacksize for task 64: unlimited
  | Maximum stacksize for task 65: unlimited
  | Maximum stacksize for task 66: unlimited
  | Maximum stacksize for task 67: unlimited
  | Maximum stacksize for task 68: unlimited
  | Maximum stacksize for task 69: unlimited
  | Maximum stacksize for task 70: unlimited
  | Maximum stacksize for task 71: unlimited
  | Maximum stacksize for task 72: unlimited
  | Maximum stacksize for task 73: unlimited
  | Maximum stacksize for task 74: unlimited
  | Maximum stacksize for task 75: unlimited
  | Maximum stacksize for task 76: unlimited
  | Maximum stacksize for task 77: unlimited
  | Maximum stacksize for task 78: unlimited
  | Maximum stacksize for task 79: unlimited
  | Maximum stacksize for task 80: unlimited
  | Maximum stacksize for task 81: unlimited
  | Maximum stacksize for task 82: unlimited
  | Maximum stacksize for task 83: unlimited
  | Maximum stacksize for task 84: unlimited
  | Maximum stacksize for task 85: unlimited
  | Maximum stacksize for task 86: unlimited
  | Maximum stacksize for task 87: unlimited
  | Maximum stacksize for task 88: unlimited
  | Maximum stacksize for task 89: unlimited
  | Maximum stacksize for task 90: unlimited
  | Maximum stacksize for task 91: unlimited
  | Maximum stacksize for task 92: unlimited
  | Maximum stacksize for task 93: unlimited
  | Maximum stacksize for task 94: unlimited
  | Maximum stacksize for task 95: unlimited
  | Maximum stacksize for task 96: unlimited
  | Maximum stacksize for task 97: unlimited
  | Maximum stacksize for task 98: unlimited
  | Maximum stacksize for task 99: unlimited
  | Maximum stacksize for task 100: unlimited
  | Maximum stacksize for task 101: unlimited
  | Maximum stacksize for task 102: unlimited
  | Maximum stacksize for task 103: unlimited
  | Maximum stacksize for task 104: unlimited
  | Maximum stacksize for task 105: unlimited
  | Maximum stacksize for task 106: unlimited
  | Maximum stacksize for task 107: unlimited
  | Maximum stacksize for task 108: unlimited
  | Maximum stacksize for task 109: unlimited
  | Maximum stacksize for task 110: unlimited
  | Maximum stacksize for task 111: unlimited
  | Maximum stacksize for task 112: unlimited
  | Maximum stacksize for task 113: unlimited
  | Maximum stacksize for task 114: unlimited
  | Maximum stacksize for task 115: unlimited
  | Maximum stacksize for task 116: unlimited
  | Maximum stacksize for task 117: unlimited
  | Maximum stacksize for task 118: unlimited
  | Maximum stacksize for task 119: unlimited
  | Maximum stacksize for task 120: unlimited
  | Maximum stacksize for task 121: unlimited
  | Maximum stacksize for task 122: unlimited
  | Maximum stacksize for task 123: unlimited
  | Maximum stacksize for task 124: unlimited
  | Maximum stacksize for task 125: unlimited
  | Maximum stacksize for task 126: unlimited
  | Maximum stacksize for task 127: unlimited
  | Maximum stacksize for task 128: unlimited
  | Maximum stacksize for task 129: unlimited
  | Maximum stacksize for task 130: unlimited
  | Maximum stacksize for task 131: unlimited
  | Maximum stacksize for task 132: unlimited
  | Maximum stacksize for task 133: unlimited
  | Maximum stacksize for task 134: unlimited
  | Maximum stacksize for task 135: unlimited
  | Maximum stacksize for task 136: unlimited
  | Maximum stacksize for task 137: unlimited
  | Maximum stacksize for task 138: unlimited
  | Maximum stacksize for task 139: unlimited
  | Maximum stacksize for task 140: unlimited
  | Maximum stacksize for task 141: unlimited
  | Maximum stacksize for task 142: unlimited
  | Maximum stacksize for task 143: unlimited
  | Maximum stacksize for task 144: unlimited
  | Maximum stacksize for task 145: unlimited
  | Maximum stacksize for task 146: unlimited
  | Maximum stacksize for task 147: unlimited
  | Maximum stacksize for task 148: unlimited
  | Maximum stacksize for task 149: unlimited
  | Maximum stacksize for task 150: unlimited
  | Maximum stacksize for task 151: unlimited
  | Maximum stacksize for task 152: unlimited
  | Maximum stacksize for task 153: unlimited
  | Maximum stacksize for task 154: unlimited
  | Maximum stacksize for task 155: unlimited
  | Maximum stacksize for task 156: unlimited
  | Maximum stacksize for task 157: unlimited
  | Maximum stacksize for task 158: unlimited
  | Maximum stacksize for task 159: unlimited
  | Maximum stacksize for task 160: unlimited
  | Maximum stacksize for task 161: unlimited
  | Maximum stacksize for task 162: unlimited
  | Maximum stacksize for task 163: unlimited
  | Maximum stacksize for task 164: unlimited
  | Maximum stacksize for task 165: unlimited
  | Maximum stacksize for task 166: unlimited
  | Maximum stacksize for task 167: unlimited
  | Maximum stacksize for task 168: unlimited
  | Maximum stacksize for task 169: unlimited
  | Maximum stacksize for task 170: unlimited
  | Maximum stacksize for task 171: unlimited
  | Maximum stacksize for task 172: unlimited
  | Maximum stacksize for task 173: unlimited
  | Maximum stacksize for task 174: unlimited
  | Maximum stacksize for task 175: unlimited
  | Maximum stacksize for task 176: unlimited
  | Maximum stacksize for task 177: unlimited
  | Maximum stacksize for task 178: unlimited
  | Maximum stacksize for task 179: unlimited
  | Maximum stacksize for task 180: unlimited
  | Maximum stacksize for task 181: unlimited
  | Maximum stacksize for task 182: unlimited
  | Maximum stacksize for task 183: unlimited
  | Maximum stacksize for task 184: unlimited
  | Maximum stacksize for task 185: unlimited
  | Maximum stacksize for task 186: unlimited
  | Maximum stacksize for task 187: unlimited
  | Maximum stacksize for task 188: unlimited
  | Maximum stacksize for task 189: unlimited
  | Maximum stacksize for task 190: unlimited
  | Maximum stacksize for task 191: unlimited
  | Maximum stacksize for task 192: unlimited
  | Maximum stacksize for task 193: unlimited
  | Maximum stacksize for task 194: unlimited
  | Maximum stacksize for task 195: unlimited
  | Maximum stacksize for task 196: unlimited
  | Maximum stacksize for task 197: unlimited
  | Maximum stacksize for task 198: unlimited
  | Maximum stacksize for task 199: unlimited
  | Maximum stacksize for task 200: unlimited
  | Maximum stacksize for task 201: unlimited
  | Maximum stacksize for task 202: unlimited
  | Maximum stacksize for task 203: unlimited
  | Maximum stacksize for task 204: unlimited
  | Maximum stacksize for task 205: unlimited
  | Maximum stacksize for task 206: unlimited
  | Maximum stacksize for task 207: unlimited
  | Maximum stacksize for task 208: unlimited
  | Maximum stacksize for task 209: unlimited
  | Maximum stacksize for task 210: unlimited
  | Maximum stacksize for task 211: unlimited
  | Maximum stacksize for task 212: unlimited
  | Maximum stacksize for task 213: unlimited
  | Maximum stacksize for task 214: unlimited
  | Maximum stacksize for task 215: unlimited
  | Maximum stacksize for task 216: unlimited
  | Maximum stacksize for task 217: unlimited
  | Maximum stacksize for task 218: unlimited
  | Maximum stacksize for task 219: unlimited
  | Maximum stacksize for task 220: unlimited
  | Maximum stacksize for task 221: unlimited
  | Maximum stacksize for task 222: unlimited
  | Maximum stacksize for task 223: unlimited
  | Maximum stacksize for task 224: unlimited
  | Maximum stacksize for task 225: unlimited
  | Maximum stacksize for task 226: unlimited
  | Maximum stacksize for task 227: unlimited
  | Maximum stacksize for task 228: unlimited
  | Maximum stacksize for task 229: unlimited
  | Maximum stacksize for task 230: unlimited
  | Maximum stacksize for task 231: unlimited
  | Maximum stacksize for task 232: unlimited
  | Maximum stacksize for task 233: unlimited
  | Maximum stacksize for task 234: unlimited
  | Maximum stacksize for task 235: unlimited
  | Maximum stacksize for task 236: unlimited
  | Maximum stacksize for task 237: unlimited
  | Maximum stacksize for task 238: unlimited
  | Maximum stacksize for task 239: unlimited
  | Maximum stacksize for task 240: unlimited
  | Maximum stacksize for task 241: unlimited
  | Maximum stacksize for task 242: unlimited
  | Maximum stacksize for task 243: unlimited
  | Maximum stacksize for task 244: unlimited
  | Maximum stacksize for task 245: unlimited
  | Maximum stacksize for task 246: unlimited
  | Maximum stacksize for task 247: unlimited
  | Maximum stacksize for task 248: unlimited
  | Maximum stacksize for task 249: unlimited
  | Maximum stacksize for task 250: unlimited
  | Maximum stacksize for task 251: unlimited
  | Maximum stacksize for task 252: unlimited
  | Maximum stacksize for task 253: unlimited
  | Maximum stacksize for task 254: unlimited
  | Maximum stacksize for task 255: unlimited
  | Maximum stacksize for task 256: unlimited
  | Maximum stacksize for task 257: unlimited
  | Maximum stacksize for task 258: unlimited
  | Maximum stacksize for task 259: unlimited
  | Maximum stacksize for task 260: unlimited
  | Maximum stacksize for task 261: unlimited
  | Maximum stacksize for task 262: unlimited
  | Maximum stacksize for task 263: unlimited
  | Maximum stacksize for task 264: unlimited
  | Maximum stacksize for task 265: unlimited
  | Maximum stacksize for task 266: unlimited
  | Maximum stacksize for task 267: unlimited
  | Maximum stacksize for task 268: unlimited
  | Maximum stacksize for task 269: unlimited
  | Maximum stacksize for task 270: unlimited
  | Maximum stacksize for task 271: unlimited
  | Maximum stacksize for task 272: unlimited
  | Maximum stacksize for task 273: unlimited
  | Maximum stacksize for task 274: unlimited
  | Maximum stacksize for task 275: unlimited
  | Maximum stacksize for task 276: unlimited
  | Maximum stacksize for task 277: unlimited
  | Maximum stacksize for task 278: unlimited
  | Maximum stacksize for task 279: unlimited
  | Maximum stacksize for task 280: unlimited
  | Maximum stacksize for task 281: unlimited
  | Maximum stacksize for task 282: unlimited
  | Maximum stacksize for task 283: unlimited
  | Maximum stacksize for task 284: unlimited
  | Maximum stacksize for task 285: unlimited
  | Maximum stacksize for task 286: unlimited
  | Maximum stacksize for task 287: unlimited
  | Current stacksize for task 0: unlimited
  | Current stacksize for task 1: unlimited
  | Current stacksize for task 2: unlimited
  | Current stacksize for task 3: unlimited
  | Current stacksize for task 4: unlimited
  | Current stacksize for task 5: unlimited
  | Current stacksize for task 6: unlimited
  | Current stacksize for task 7: unlimited
  | Current stacksize for task 8: unlimited
  | Current stacksize for task 9: unlimited
  | Current stacksize for task 10: unlimited
  | Current stacksize for task 11: unlimited
  | Current stacksize for task 12: unlimited
  | Current stacksize for task 13: unlimited
  | Current stacksize for task 14: unlimited
  | Current stacksize for task 15: unlimited
  | Current stacksize for task 16: unlimited
  | Current stacksize for task 17: unlimited
  | Current stacksize for task 18: unlimited
  | Current stacksize for task 19: unlimited
  | Current stacksize for task 20: unlimited
  | Current stacksize for task 21: unlimited
  | Current stacksize for task 22: unlimited
  | Current stacksize for task 23: unlimited
  | Current stacksize for task 24: unlimited
  | Current stacksize for task 25: unlimited
  | Current stacksize for task 26: unlimited
  | Current stacksize for task 27: unlimited
  | Current stacksize for task 28: unlimited
  | Current stacksize for task 29: unlimited
  | Current stacksize for task 30: unlimited
  | Current stacksize for task 31: unlimited
  | Current stacksize for task 32: unlimited
  | Current stacksize for task 33: unlimited
  | Current stacksize for task 34: unlimited
  | Current stacksize for task 35: unlimited
  | Current stacksize for task 36: unlimited
  | Current stacksize for task 37: unlimited
  | Current stacksize for task 38: unlimited
  | Current stacksize for task 39: unlimited
  | Current stacksize for task 40: unlimited
  | Current stacksize for task 41: unlimited
  | Current stacksize for task 42: unlimited
  | Current stacksize for task 43: unlimited
  | Current stacksize for task 44: unlimited
  | Current stacksize for task 45: unlimited
  | Current stacksize for task 46: unlimited
  | Current stacksize for task 47: unlimited
  | Current stacksize for task 48: unlimited
  | Current stacksize for task 49: unlimited
  | Current stacksize for task 50: unlimited
  | Current stacksize for task 51: unlimited
  | Current stacksize for task 52: unlimited
  | Current stacksize for task 53: unlimited
  | Current stacksize for task 54: unlimited
  | Current stacksize for task 55: unlimited
  | Current stacksize for task 56: unlimited
  | Current stacksize for task 57: unlimited
  | Current stacksize for task 58: unlimited
  | Current stacksize for task 59: unlimited
  | Current stacksize for task 60: unlimited
  | Current stacksize for task 61: unlimited
  | Current stacksize for task 62: unlimited
  | Current stacksize for task 63: unlimited
  | Current stacksize for task 64: unlimited
  | Current stacksize for task 65: unlimited
  | Current stacksize for task 66: unlimited
  | Current stacksize for task 67: unlimited
  | Current stacksize for task 68: unlimited
  | Current stacksize for task 69: unlimited
  | Current stacksize for task 70: unlimited
  | Current stacksize for task 71: unlimited
  | Current stacksize for task 72: unlimited
  | Current stacksize for task 73: unlimited
  | Current stacksize for task 74: unlimited
  | Current stacksize for task 75: unlimited
  | Current stacksize for task 76: unlimited
  | Current stacksize for task 77: unlimited
  | Current stacksize for task 78: unlimited
  | Current stacksize for task 79: unlimited
  | Current stacksize for task 80: unlimited
  | Current stacksize for task 81: unlimited
  | Current stacksize for task 82: unlimited
  | Current stacksize for task 83: unlimited
  | Current stacksize for task 84: unlimited
  | Current stacksize for task 85: unlimited
  | Current stacksize for task 86: unlimited
  | Current stacksize for task 87: unlimited
  | Current stacksize for task 88: unlimited
  | Current stacksize for task 89: unlimited
  | Current stacksize for task 90: unlimited
  | Current stacksize for task 91: unlimited
  | Current stacksize for task 92: unlimited
  | Current stacksize for task 93: unlimited
  | Current stacksize for task 94: unlimited
  | Current stacksize for task 95: unlimited
  | Current stacksize for task 96: unlimited
  | Current stacksize for task 97: unlimited
  | Current stacksize for task 98: unlimited
  | Current stacksize for task 99: unlimited
  | Current stacksize for task 100: unlimited
  | Current stacksize for task 101: unlimited
  | Current stacksize for task 102: unlimited
  | Current stacksize for task 103: unlimited
  | Current stacksize for task 104: unlimited
  | Current stacksize for task 105: unlimited
  | Current stacksize for task 106: unlimited
  | Current stacksize for task 107: unlimited
  | Current stacksize for task 108: unlimited
  | Current stacksize for task 109: unlimited
  | Current stacksize for task 110: unlimited
  | Current stacksize for task 111: unlimited
  | Current stacksize for task 112: unlimited
  | Current stacksize for task 113: unlimited
  | Current stacksize for task 114: unlimited
  | Current stacksize for task 115: unlimited
  | Current stacksize for task 116: unlimited
  | Current stacksize for task 117: unlimited
  | Current stacksize for task 118: unlimited
  | Current stacksize for task 119: unlimited
  | Current stacksize for task 120: unlimited
  | Current stacksize for task 121: unlimited
  | Current stacksize for task 122: unlimited
  | Current stacksize for task 123: unlimited
  | Current stacksize for task 124: unlimited
  | Current stacksize for task 125: unlimited
  | Current stacksize for task 126: unlimited
[...]
  |    29       34.076528       -0.076528        7.884147       15.950546       10.195734        0.046102
  |    30       34.076512       -0.076512        7.884145       15.950531       10.195734        0.046102
  |    31       73.847901        0.152099       10.365546       24.748714       24.621400       14.112240
  |    32       34.082141       -0.082141        7.883745       15.957696       10.194822        0.045878
  |    33       34.082121       -0.082121        7.883743       15.957676       10.194823        0.045879
  |    34       73.892656        0.107344       10.370892       24.757626       24.649762       14.114377
  |    35       34.068721       -0.068721        7.884356       15.939922       10.199130        0.045313
  |    36       34.068701       -0.068701        7.884354       15.939904       10.199130        0.045314
  |    37       73.853541        0.146459       10.460139       24.731114       24.578997       14.083292
  |    38       73.893486        0.106514       10.371311       24.757792       24.650017       14.114366
  |    39       34.068691       -0.068691        7.884309       15.939902       10.199157        0.045323
  |    40       34.068674       -0.068674        7.884307       15.939887       10.199157        0.045323
  |    41       73.847907        0.152093       10.365517       24.748789       24.621359       14.112242
  |    42       34.082135       -0.082135        7.883760       15.957679       10.194820        0.045877
  |    43       34.082115       -0.082115        7.883756       15.957653       10.194827        0.045878
  |    44       73.838805        0.161195       10.362617       24.744736       24.621152       14.110300
  |    45       34.079171       -0.079171        7.883611       15.950352       10.198348        0.046860
  |    46       34.079151       -0.079151        7.883606       15.950323       10.198358        0.046863
  |    47       73.852493        0.147507       10.363710       24.740232       24.641775       14.106776
  |    48       34.078785       -0.078785        7.883121       15.945707       10.202227        0.047729
  |    49       34.078766       -0.078766        7.883116       15.945683       10.202235        0.047732
  |    50       73.854016        0.145984       10.460171       24.731241       24.579337       14.083268
  |    51       34.068701       -0.068701        7.884325       15.939942       10.199122        0.045312
  |    52       34.068691       -0.068691        7.884322       15.939933       10.199123        0.045312
  |    53       73.851854        0.148146       10.459093       24.730801       24.578673       14.083288
  |    54       34.068690       -0.068690        7.884287       15.939842       10.199223        0.045337
  |    55       34.068673       -0.068673        7.884287       15.939833       10.199217        0.045336
  |    56       73.853005        0.146995       10.364091       24.740281       24.641865       14.106767
  |    57       34.078587       -0.078587        7.883072       15.945591       10.202201        0.047724
  |    58       34.078568       -0.078568        7.883069       15.945571       10.202203        0.047725
  |    59       73.839542        0.160458       10.360097       24.743464       24.625335       14.110645
  |    60       34.079156       -0.079156        7.883612       15.950343       10.198343        0.046859
  |    61       34.079155       -0.079155        7.883607       15.950335       10.198352        0.046861
  |    62       73.839515        0.160485       10.360067       24.743507       24.625306       14.110636
  |    63       34.079242       -0.079242        7.883641       15.950401       10.198341        0.046859
  |    64       34.079240       -0.079240        7.883634       15.950385       10.198358        0.046863
  |    65       73.852781        0.147219       10.363858       24.740345       24.641803       14.106775
  |    66       34.082240       -0.082240        7.883802       15.957738       10.194822        0.045877
  |    67       34.082238       -0.082238        7.883797       15.957728       10.194833        0.045880
  |    68       73.893214        0.106786       10.371267       24.757745       24.649830       14.114372
  |    69       34.076888       -0.076888        7.884775       15.952410       10.194280        0.045424
  |    70       34.076889       -0.076889        7.884772       15.952410       10.194282        0.045424
  |    71       73.852994        0.147006       10.364016       24.740280       24.641907       14.106790
  |    72       34.082148       -0.082148        7.883764       15.957650       10.194849        0.045885
  |    73       34.082149       -0.082149        7.883761       15.957646       10.194855        0.045886
  |
  | Total     3482.000000       -0.000000
 
  Summary of the per-atom spin analysis:
  |
  |  atom   spin      l=0         l=1         l=2         l=3
  |     1   -0.000002   -0.000000   -0.000000   -0.000001   -0.000000
  |     2   -0.000000    0.000000   -0.000000    0.000000    0.000000
  |     3   -0.000000    0.000000   -0.000000    0.000000    0.000000
  |     4    0.000003   -0.000000    0.000000    0.000003   -0.000000
  |     5   -0.000001   -0.000000   -0.000001    0.000000    0.000000
  |     6   -0.000001   -0.000000   -0.000001    0.000000    0.000000
  |     7   -0.000002   -0.000000   -0.000000   -0.000001   -0.000000
  |     8   -0.000000    0.000000   -0.000000    0.000000    0.000000
  |     9   -0.000000    0.000000   -0.000000    0.000000    0.000000
  |    10    0.000001   -0.000000    0.000000    0.000002   -0.000000
  |    11   -0.000000    0.000000   -0.000000    0.000000    0.000000
  |    12   -0.000000    0.000000   -0.000000    0.000000    0.000000
  |    13    0.000001   -0.000000    0.000000    0.000002   -0.000000
  |    14   -0.000000    0.000000   -0.000000    0.000000    0.000000
  |    15   -0.000000    0.000000   -0.000000    0.000000    0.000000
  |    16    0.000001   -0.000000    0.000000    0.000002   -0.000000
  |    17   -0.000001   -0.000000   -0.000001    0.000000    0.000000
  |    18   -0.000001   -0.000000   -0.000001    0.000000    0.000000
  |    19    0.000001   -0.000000    0.000000    0.000001   -0.000000
  |    20   -0.000001   -0.000000   -0.000001    0.000000    0.000000
  |    21   -0.000001   -0.000000   -0.000001    0.000000    0.000000
  |    22    0.000000   -0.000000    0.000000    0.000001   -0.000000
  |    23   -0.000001   -0.000000   -0.000001    0.000000    0.000000
  |    24   -0.000001   -0.000000   -0.000001    0.000000    0.000000
  |    25    0.000002   -0.000000    0.000000    0.000002   -0.000000
  |    26   -0.000001   -0.000000   -0.000001    0.000000    0.000000
  |    27   -0.000001   -0.000000   -0.000001    0.000000    0.000000
  |    28   -0.000001   -0.000000   -0.000000   -0.000000   -0.000000
  |    29   -0.000000    0.000000   -0.000000    0.000000    0.000000
  |    30   -0.000000    0.000000   -0.000000    0.000000    0.000000
  |    31    0.000002   -0.000000    0.000000    0.000002   -0.000000
  |    32   -0.000000    0.000000   -0.000000    0.000000    0.000000
  |    33   -0.000000    0.000000   -0.000000    0.000000    0.000000
  |    34    0.000003   -0.000000    0.000000    0.000003   -0.000000
  |    35   -0.000001   -0.000000   -0.000001    0.000000    0.000000
  |    36   -0.000001   -0.000000   -0.000001    0.000000    0.000000
  |    37    0.000000   -0.000001   -0.000000    0.000001    0.000000
  |    38    0.000003    0.000000    0.000000    0.000003   -0.000000
  |    39   -0.000001   -0.000000   -0.000001    0.000000    0.000000
  |    40   -0.000001   -0.000000   -0.000001    0.000000    0.000000
  |    41    0.000002   -0.000000    0.000000    0.000002   -0.000000
  |    42   -0.000000    0.000000   -0.000000    0.000000    0.000000
  |    43   -0.000000    0.000000   -0.000000    0.000000    0.000000
  |    44   -0.000002   -0.000000   -0.000000   -0.000001   -0.000000
  |    45   -0.000001   -0.000000   -0.000001    0.000000    0.000000
  |    46   -0.000001   -0.000000   -0.000001    0.000000    0.000000
  |    47    0.000000   -0.000000    0.000000    0.000001   -0.000000
  |    48   -0.000001   -0.000000   -0.000001    0.000000    0.000000
  |    49   -0.000001   -0.000000   -0.000001    0.000000    0.000000
  |    50    0.000001   -0.000001   -0.000000    0.000001    0.000000
  |    51   -0.000001   -0.000000   -0.000001    0.000000    0.000000
  |    52   -0.000001   -0.000000   -0.000001    0.000000    0.000000
  |    53    0.000000   -0.000001   -0.000000    0.000001    0.000000
  |    54   -0.000001   -0.000000   -0.000001    0.000000    0.000000
  |    55   -0.000001   -0.000000   -0.000001    0.000000    0.000000
  |    56    0.000000   -0.000000    0.000000    0.000001   -0.000000
  |    57   -0.000001   -0.000000   -0.000001    0.000000    0.000000
  |    58   -0.000001   -0.000000   -0.000001    0.000000    0.000000
  |    59    0.000003   -0.000000    0.000000    0.000003   -0.000000
  |    60   -0.000001   -0.000000   -0.000001    0.000000    0.000000
  |    61   -0.000001   -0.000000   -0.000001    0.000000    0.000000
  |    62    0.000003   -0.000000    0.000000    0.000003   -0.000000
  |    63   -0.000001   -0.000000   -0.000001    0.000000    0.000000
  |    64   -0.000001   -0.000000   -0.000001    0.000000    0.000000
  |    65    0.000000   -0.000000    0.000000    0.000001   -0.000000
  |    66   -0.000000    0.000000   -0.000000    0.000000    0.000000
  |    67   -0.000000    0.000000   -0.000000    0.000000    0.000000
  |    68    0.000003    0.000000    0.000000    0.000003   -0.000000
  |    69   -0.000001   -0.000000   -0.000001    0.000000    0.000000
  |    70   -0.000001   -0.000000   -0.000001    0.000000    0.000000
  |    71    0.000001   -0.000000    0.000000    0.000001   -0.000000
  |    72   -0.000000    0.000000   -0.000000    0.000000    0.000000
  |    73   -0.000000    0.000000   -0.000000    0.000000    0.000000
  |
  | Total   -0.000000
 
  Calculating angular momentum projected density of states ...
  | Chemical potential is  -4.737931 eV.
  | writing   projected DOS (shifted by the chemical potential) for species Se to file Se_l_proj_dos_tetrahedron.dat.
  | writing   projected DOS (raw data) for species Se to file Se_l_proj_dos_tetrahedron_raw.dat.
  | writing   projected DOS (shifted by the chemical potential) for species S to file S_l_proj_dos_tetrahedron.dat.
  | writing   projected DOS (raw data) for species S to file S_l_proj_dos_tetrahedron_raw.dat.
  | writing   projected DOS (shifted by the chemical potential) for species Mo to file Mo_l_proj_dos_tetrahedron.dat.
  | writing   projected DOS (raw data) for species Mo to file Mo_l_proj_dos_tetrahedron_raw.dat.
  | writing   projected DOS (shifted by the chemical potential) for species W to file W_l_proj_dos_tetrahedron.dat.
  | writing   projected DOS (raw data) for species W to file W_l_proj_dos_tetrahedron_raw.dat.

  Mulliken analysis                                       :  max(cpu_time)    wall_clock(cpu1)
  | Time for Mulliken analysis (scalar relativistic)      :          1.280               1.339
  | Time for Mulliken analysis (spin-orbit coupled)       :          2.679               2.688
  | Total time for Mulliken analysis                      :          3.959               4.027
------------------------------------------------------------

------------------------------------------------------------------------------
  Final output of selected total energy values:

  The following output summarizes some interesting total energy values
  at the end of a run (AFTER all relaxation, molecular dynamics, etc.).

  | Total energy of the DFT / Hartree-Fock s.c.f. calculation      :      -14511623.879150674 eV
  | Final zero-broadening corrected energy (caution - metals only) :      -14511623.879150674 eV
  | Total energy after non-SC SOC correction (DO NOT USE)          :      -14511667.279821221 eV
  | For reference only, the value of 1 Hartree used in FHI-aims is :             27.211384500 eV
  | For reference only, the overall average (free atom contribution
  | + realspace contribution) of the electrostatic potential after
  | s.c.f. convergence is                                          :             -1.295920387 eV

  Before relying on these values, please be sure to understand exactly which
  total energy value is referred to by a given number. Different objects may
  all carry the same name 'total energy'. Definitions:

  Total energy of the DFT / Hartree-Fock s.c.f. calculation:
  | Note that this energy does not include ANY quantities calculated after the
  | s.c.f. cycle, in particular not ANY RPA, MP2, etc. many-body perturbation terms.

  Final zero-broadening corrected energy:
  | For metallic systems only, a broadening of the occupation numbers at the Fermi
  | level can be extrapolated back to zero broadening by an electron-gas inspired
  | formula. For all systems that are not real metals, this value can be
  | meaningless and should be avoided.

------------------------------------------------------------------------------
  Methods described in the following list of references were used in this FHI-aims run.
  If you publish the results, please make sure to cite these reference if they apply.
  FHI-aims is an academic code, and for our developers (often, Ph.D. students
  and postdocs), scientific credit in the community is essential.
  Thank you for helping us!

  For any use of FHI-aims, please cite:

    Volker Blum, Ralf Gehrke, Felix Hanke, Paula Havu, Ville Havu,
    Xinguo Ren, Karsten Reuter, and Matthias Scheffler
    'Ab initio molecular simulations with numeric atom-centered orbitals'
    Computer Physics Communications 180, 2175-2196 (2009)
    http://doi.org/10.1016/j.cpc.2009.06.022


  For Hartree-Fock, hybrid functionals, or many-body perturbation theory used in your run, please cite:

    Xinguo Ren, Patrick Rinke, Volker Blum, Juergen Wieferink, Alex Tkatchenko,
    Andrea Sanfilippo, Karsten Reuter, and Matthias Scheffler,
    'Resolution-of-identity approach to Hartree-Fock, hybrid density functionals,
    RPA, MP2, and GW with numeric atom-centered orbital basis functions'
    New Journal of Physics 14, 053020 (2012).
    http://doi.org/10.1088/1367-2630/14/5/053020


  The provided symmetry information was generated with SPGlib:

    Atsushi Togo, Yusuke Seto, Dimitar Pashov
    SPGlib 1.7.3 obtained from http://spglib.sourceforge.net
    Copyright (C) 2008 Atsushi Togo


  For second-variational spin-orbit coupling used in your run, please cite:

    William P. Huhn and Volker Blum,
    'One-hundred-three compound band-structure benchmark of post-self-consistent'
    'spin-orbit coupling treatments in density functional theory'
    Phys. Rev. Materials 1, 033803 (2017).


  The ELSI infrastructure was used in your run to solve the Kohn-Sham electronic structure.
  Please check out http://elsi-interchange.org to learn more.
  If scalability is important for your project, please acknowledge ELSI by citing:

    V. W-z. Yu, F. Corsetti, A. Garcia, W. P. Huhn, M. Jacquelin, W. Jia,
    B. Lange, L. Lin, J. Lu, W. Mi, A. Seifitokaldani, A. Vazquez-Mayagoitia,
    C. Yang, H. Yang, and V. Blum
    'ELSI: A unified software interface for Kohn-Sham electronic structure solvers'
    Computer Physics Communications 222, 267-285 (2018).
    http://doi.org/10.1016/j.cpc.2017.09.007


  For the real-space grid partitioning and parallelization used in this calculation, please cite:

    Ville Havu, Volker Blum, Paula Havu, and Matthias Scheffler,
    'Efficient O(N) integration for all-electron electronic structure calculation'
    'using numerically tabulated basis functions'
    Journal of Computational Physics 228, 8367-8379 (2009).
    http://doi.org/10.1016/j.jcp.2009.08.008


  The high-level electronic structure method used in your calculation
  employed our efficient localized resolution of identity for the Coulomb operator.
  Some calculations, especially large-scale hybrid density functional theory,
  are only possible thanks to this development. For this feature, please cite:

    Arvid Ihrig, Juergen Wieferink, Igor Ying Zhang, Matti Ropo, Xinguo Ren,
    Patrick Rinke, Matthias Scheffler, and Volker Blum,
    'Accurate localized resolution of identity approach for linear-scaling
    hybrid density functionals and for many-body perturbation theory'
    New Journal of Physics 117, 093020 (2015).
    http://doi.org/10.1088/1367-2630/17/9/093020

  Of course, there are many other important community references, e.g., those cited in the
  above references. Our list is limited to references that describe implementations in the
  FHI-aims code. The reason is purely practical (length of this list) - please credit others as well.

------------------------------------------------------------
          Leaving FHI-aims.
          Date     :  20220930, Time     :  080912.645

          Computational steps:
          | Number of self-consistency cycles          :           26
          | Number of SCF (re)initializations          :            1

          Detailed time accounting                     :  max(cpu_time)    wall_clock(cpu1)
          | Total time                                  :     4401.191 s        4401.479 s
          | Preparation time                            :        1.488 s           1.490 s
          | Boundary condition initalization            :        0.891 s           0.892 s
          | Grid partitioning                           :        3.000 s           3.000 s
          | Preloading free-atom quantities on grid     :        1.588 s           1.591 s
          | Free-atom superposition energy              :        0.058 s           0.058 s
          | Total time for integrations                 :       43.355 s          43.353 s
          | Product basis setup: Total time             :      577.411 s         577.420 s
          | Total time evaluating exchange matrix       :     3425.664 s        3424.707 s
          | Total time for solution of K.-S. equations  :      181.311 s         181.324 s
          | Total time for density update               :      100.160 s         100.160 s
          | Total time for mixing                       :        0.219 s           0.216 s
          | Total time for Hartree multipole update     :        0.328 s           0.323 s
          | Total time for Hartree multipole sum        :       33.710 s          33.722 s
          | Total time for total energy evaluation      :        0.073 s           0.080 s
          | Total time for scaled ZORA corrections      :        0.000 s           0.000 s
          | Total time for vdW correction               :        6.249 s           6.250 s
          | Total time for perturbative SOC             :       22.130 s          22.130 s
          | Total time for Mulliken analysis            :        3.991 s           4.027 s

          Partial memory accounting:
          | Residual value for overall tracked memory usage across tasks:     0.000000 MB (should be 0.000000 MB)
          | Peak values for overall tracked memory usage:
          |   Minimum:      437.063 MB (on task  88 after allocating perturbation_matrix)
          |   Maximum:      776.144 MB (on task   0 after allocating perturbation_matrix)
          |   Average:      511.834 MB
          | Largest tracked array allocation:
          |   Minimum:      100.044 MB (ovlp3fn for atom on task 273)
          |   Maximum:      229.179 MB (ovlp3fn for atom on task 231)
          |   Average:      168.025 MB
          Note:  These values currently only include a subset of arrays which are explicitly tracked.
          The "true" memory usage will be greater.

          Have a nice day.
------------------------------------------------------------
