------------------------------------------------------------
          Invoking FHI-aims ...

          When using FHI-aims, please cite the following reference:

            Volker Blum, Ralf Gehrke, Felix Hanke, Paula Havu,
            Ville Havu, Xinguo Ren, Karsten Reuter, and Matthias Scheffler,
            'Ab Initio Molecular Simulations with Numeric Atom-Centered Orbitals',
            Computer Physics Communications 180, 2175-2196 (2009)

          In addition, many other developments in FHI-aims are likely important for
          your particular application. A partial list of references is given at the end of
          this file. Thank you for giving credit to the authors of these developments.

          For any questions about FHI-aims, please visit our slack channel at

            https://fhi-aims.slack.com

          and our main development and support site at

            https://aims-git.rz-berlin.mpg.de .

          The latter site, in particular, has a wiki to collect information, as well
          as an issue tracker to log discussions, suggest improvements, and report issues
          or bugs. https://aims-git.rz-berlin.mpg.de is also the main development site
          of the project and all new and updated code versions can be obtained there.
          Please send an email to aims-coordinators@fhi-berlin.mpg.de and we will add
          you to these sites. They are for you and everyone is welcome there.

------------------------------------------------------------



  Date     :  20220818, Time     :  205428.808
  Time zero on CPU 1             :   0.381826000000000E+00  s.
  Internal wall clock time zero  :           430088068.808  s.

  FHI-aims created a unique identifier for this run for later identification
  aims_uuid : 2E8AA2A6-7DD1-489E-AC1A-F949BE76451C

  Build configuration of the current instance of FHI-aims
  -------------------------------------------------------
  FHI-aims version      : 220208
  Commit number         : f4a9b4d18
  CMake host system     : Linux-4.12.14-122.88-default
  CMake version         : 3.22.0
  Fortran compiler      : /mpcdf/soft/SLE_12/packages/x86_64/intel_oneapi/2021.3/mpi/2021.3.0/bin/mpiifort (Intel) version 2021.3.0.20210609
  Fortran compiler flags: -O3 -ip -fp-model precise
  C compiler            : /mpcdf/soft/SLE_12/packages/x86_64/intel/2021.3.0/bin/icc (Intel) version 2021.3.0.20210609
  C compiler flags      : -O3 -ip -fp-model precise
  C++ compiler          : /mpcdf/soft/SLE_12/packages/x86_64/intel/2021.3.0/bin/icpc (Intel) version 2021.3.0.20210609
  C++ compiler flags    : -O3 -ip -fp-model precise -std=gnu99
  Using MPI
  Using ScaLAPACK
  Using LibXC
  Using i-PI
  Using RLSY
  Linking against: /mpcdf/soft/SLE_12/packages/x86_64/intel_oneapi/2021.3/mkl/latest/lib/intel64/libmkl_intel_lp64.so
                   /mpcdf/soft/SLE_12/packages/x86_64/intel_oneapi/2021.3/mkl/latest/lib/intel64/libmkl_sequential.so
                   /mpcdf/soft/SLE_12/packages/x86_64/intel_oneapi/2021.3/mkl/latest/lib/intel64/libmkl_core.so
                   /mpcdf/soft/SLE_12/packages/x86_64/intel_oneapi/2021.3/mkl/latest/lib/intel64/libmkl_blacs_intelmpi_lp64.so
                   /mpcdf/soft/SLE_12/packages/x86_64/intel_oneapi/2021.3/mkl/latest/lib/intel64/libmkl_scalapack_lp64.so

  Using      400 parallel tasks.
  Task        0 on host co1007 reporting.
  Task        1 on host co1007 reporting.
  Task        2 on host co1007 reporting.
  Task        3 on host co1007 reporting.
  Task        4 on host co1007 reporting.
  Task        5 on host co1007 reporting.
  Task        6 on host co1007 reporting.
  Task        7 on host co1007 reporting.
  Task        8 on host co1007 reporting.
  Task        9 on host co1007 reporting.
  Task       10 on host co1007 reporting.
  Task       11 on host co1007 reporting.
  Task       12 on host co1007 reporting.
  Task       13 on host co1007 reporting.
  Task       14 on host co1007 reporting.
  Task       15 on host co1007 reporting.
  Task       16 on host co1007 reporting.
  Task       17 on host co1007 reporting.
  Task       18 on host co1007 reporting.
  Task       19 on host co1007 reporting.
  Task       20 on host co1007 reporting.
  Task       21 on host co1007 reporting.
  Task       22 on host co1007 reporting.
  Task       23 on host co1007 reporting.
  Task       24 on host co1007 reporting.
  Task       25 on host co1007 reporting.
  Task       26 on host co1007 reporting.
  Task       27 on host co1007 reporting.
  Task       28 on host co1007 reporting.
  Task       29 on host co1007 reporting.
  Task       30 on host co1007 reporting.
  Task       31 on host co1007 reporting.
  Task       32 on host co1007 reporting.
  Task       33 on host co1007 reporting.
  Task       34 on host co1007 reporting.
  Task       35 on host co1007 reporting.
  Task       36 on host co1007 reporting.
  Task       37 on host co1007 reporting.
  Task       38 on host co1007 reporting.
  Task       39 on host co1007 reporting.
  Task       40 on host co1008 reporting.
  Task       41 on host co1008 reporting.
  Task       42 on host co1008 reporting.
  Task       43 on host co1008 reporting.
  Task       44 on host co1008 reporting.
  Task       45 on host co1008 reporting.
  Task       46 on host co1008 reporting.
  Task       47 on host co1008 reporting.
  Task       48 on host co1008 reporting.
  Task       49 on host co1008 reporting.
  Task       50 on host co1008 reporting.
  Task       51 on host co1008 reporting.
  Task       52 on host co1008 reporting.
  Task       53 on host co1008 reporting.
  Task       54 on host co1008 reporting.
  Task       55 on host co1008 reporting.
  Task       56 on host co1008 reporting.
  Task       57 on host co1008 reporting.
  Task       58 on host co1008 reporting.
  Task       59 on host co1008 reporting.
  Task       60 on host co1008 reporting.
  Task       61 on host co1008 reporting.
  Task       62 on host co1008 reporting.
  Task       63 on host co1008 reporting.
  Task       64 on host co1008 reporting.
  Task       65 on host co1008 reporting.
  Task       66 on host co1008 reporting.
  Task       67 on host co1008 reporting.
  Task       68 on host co1008 reporting.
  Task       69 on host co1008 reporting.
  Task       70 on host co1008 reporting.
  Task       71 on host co1008 reporting.
  Task       72 on host co1008 reporting.
  Task       73 on host co1008 reporting.
  Task       74 on host co1008 reporting.
  Task       75 on host co1008 reporting.
  Task       76 on host co1008 reporting.
  Task       77 on host co1008 reporting.
  Task       78 on host co1008 reporting.
  Task       79 on host co1008 reporting.
  Task       80 on host co1009 reporting.
  Task       81 on host co1009 reporting.
  Task       82 on host co1009 reporting.
  Task       83 on host co1009 reporting.
  Task       84 on host co1009 reporting.
  Task       85 on host co1009 reporting.
  Task       86 on host co1009 reporting.
  Task       87 on host co1009 reporting.
  Task       88 on host co1009 reporting.
  Task       89 on host co1009 reporting.
  Task       90 on host co1009 reporting.
  Task       91 on host co1009 reporting.
  Task       92 on host co1009 reporting.
  Task       93 on host co1009 reporting.
  Task       94 on host co1009 reporting.
  Task       95 on host co1009 reporting.
  Task       96 on host co1009 reporting.
  Task       97 on host co1009 reporting.
  Task       98 on host co1009 reporting.
  Task       99 on host co1009 reporting.
  Task      100 on host co1009 reporting.
  Task      101 on host co1009 reporting.
  Task      102 on host co1009 reporting.
  Task      103 on host co1009 reporting.
  Task      104 on host co1009 reporting.
  Task      105 on host co1009 reporting.
  Task      106 on host co1009 reporting.
  Task      107 on host co1009 reporting.
  Task      108 on host co1009 reporting.
  Task      109 on host co1009 reporting.
  Task      110 on host co1009 reporting.
  Task      111 on host co1009 reporting.
  Task      112 on host co1009 reporting.
  Task      113 on host co1009 reporting.
  Task      114 on host co1009 reporting.
  Task      115 on host co1009 reporting.
  Task      116 on host co1009 reporting.
  Task      117 on host co1009 reporting.
  Task      118 on host co1009 reporting.
  Task      119 on host co1009 reporting.
  Task      120 on host co1011 reporting.
  Task      121 on host co1011 reporting.
  Task      122 on host co1011 reporting.
  Task      123 on host co1011 reporting.
  Task      124 on host co1011 reporting.
  Task      125 on host co1011 reporting.
  Task      126 on host co1011 reporting.
  Task      127 on host co1011 reporting.
  Task      128 on host co1011 reporting.
  Task      129 on host co1011 reporting.
  Task      130 on host co1011 reporting.
  Task      131 on host co1011 reporting.
  Task      132 on host co1011 reporting.
  Task      133 on host co1011 reporting.
  Task      134 on host co1011 reporting.
  Task      135 on host co1011 reporting.
  Task      136 on host co1011 reporting.
  Task      137 on host co1011 reporting.
  Task      138 on host co1011 reporting.
  Task      139 on host co1011 reporting.
  Task      140 on host co1011 reporting.
  Task      141 on host co1011 reporting.
  Task      142 on host co1011 reporting.
  Task      143 on host co1011 reporting.
  Task      144 on host co1011 reporting.
  Task      145 on host co1011 reporting.
  Task      146 on host co1011 reporting.
  Task      147 on host co1011 reporting.
  Task      148 on host co1011 reporting.
  Task      149 on host co1011 reporting.
  Task      150 on host co1011 reporting.
  Task      151 on host co1011 reporting.
  Task      152 on host co1011 reporting.
  Task      153 on host co1011 reporting.
  Task      154 on host co1011 reporting.
  Task      155 on host co1011 reporting.
  Task      156 on host co1011 reporting.
  Task      157 on host co1011 reporting.
  Task      158 on host co1011 reporting.
  Task      159 on host co1011 reporting.
  Task      160 on host co1014 reporting.
  Task      161 on host co1014 reporting.
  Task      162 on host co1014 reporting.
  Task      163 on host co1014 reporting.
  Task      164 on host co1014 reporting.
  Task      165 on host co1014 reporting.
  Task      166 on host co1014 reporting.
  Task      167 on host co1014 reporting.
  Task      168 on host co1014 reporting.
  Task      169 on host co1014 reporting.
  Task      170 on host co1014 reporting.
  Task      171 on host co1014 reporting.
  Task      172 on host co1014 reporting.
  Task      173 on host co1014 reporting.
  Task      174 on host co1014 reporting.
  Task      175 on host co1014 reporting.
  Task      176 on host co1014 reporting.
  Task      177 on host co1014 reporting.
  Task      178 on host co1014 reporting.
  Task      179 on host co1014 reporting.
  Task      180 on host co1014 reporting.
  Task      181 on host co1014 reporting.
  Task      182 on host co1014 reporting.
  Task      183 on host co1014 reporting.
  Task      184 on host co1014 reporting.
  Task      185 on host co1014 reporting.
  Task      186 on host co1014 reporting.
  Task      187 on host co1014 reporting.
  Task      188 on host co1014 reporting.
  Task      189 on host co1014 reporting.
  Task      190 on host co1014 reporting.
  Task      191 on host co1014 reporting.
  Task      192 on host co1014 reporting.
  Task      193 on host co1014 reporting.
  Task      194 on host co1014 reporting.
  Task      195 on host co1014 reporting.
  Task      196 on host co1014 reporting.
  Task      197 on host co1014 reporting.
  Task      198 on host co1014 reporting.
  Task      199 on host co1014 reporting.
  Task      200 on host co1015 reporting.
  Task      201 on host co1015 reporting.
  Task      202 on host co1015 reporting.
  Task      203 on host co1015 reporting.
  Task      204 on host co1015 reporting.
  Task      205 on host co1015 reporting.
  Task      206 on host co1015 reporting.
  Task      207 on host co1015 reporting.
  Task      208 on host co1015 reporting.
  Task      209 on host co1015 reporting.
  Task      210 on host co1015 reporting.
  Task      211 on host co1015 reporting.
  Task      212 on host co1015 reporting.
  Task      213 on host co1015 reporting.
  Task      214 on host co1015 reporting.
  Task      215 on host co1015 reporting.
  Task      216 on host co1015 reporting.
  Task      217 on host co1015 reporting.
  Task      218 on host co1015 reporting.
  Task      219 on host co1015 reporting.
  Task      220 on host co1015 reporting.
  Task      221 on host co1015 reporting.
  Task      222 on host co1015 reporting.
  Task      223 on host co1015 reporting.
  Task      224 on host co1015 reporting.
  Task      225 on host co1015 reporting.
  Task      226 on host co1015 reporting.
  Task      227 on host co1015 reporting.
  Task      228 on host co1015 reporting.
  Task      229 on host co1015 reporting.
  Task      230 on host co1015 reporting.
  Task      231 on host co1015 reporting.
  Task      232 on host co1015 reporting.
  Task      233 on host co1015 reporting.
  Task      234 on host co1015 reporting.
  Task      235 on host co1015 reporting.
  Task      236 on host co1015 reporting.
  Task      237 on host co1015 reporting.
  Task      238 on host co1015 reporting.
  Task      239 on host co1015 reporting.
  Task      240 on host co1016 reporting.
  Task      241 on host co1016 reporting.
  Task      242 on host co1016 reporting.
  Task      243 on host co1016 reporting.
  Task      244 on host co1016 reporting.
  Task      245 on host co1016 reporting.
  Task      246 on host co1016 reporting.
  Task      247 on host co1016 reporting.
  Task      248 on host co1016 reporting.
  Task      249 on host co1016 reporting.
  Task      250 on host co1016 reporting.
  Task      251 on host co1016 reporting.
  Task      252 on host co1016 reporting.
  Task      253 on host co1016 reporting.
  Task      254 on host co1016 reporting.
  Task      255 on host co1016 reporting.
  Task      256 on host co1016 reporting.
  Task      257 on host co1016 reporting.
  Task      258 on host co1016 reporting.
  Task      259 on host co1016 reporting.
  Task      260 on host co1016 reporting.
  Task      261 on host co1016 reporting.
  Task      262 on host co1016 reporting.
  Task      263 on host co1016 reporting.
  Task      264 on host co1016 reporting.
  Task      265 on host co1016 reporting.
  Task      266 on host co1016 reporting.
  Task      267 on host co1016 reporting.
  Task      268 on host co1016 reporting.
  Task      269 on host co1016 reporting.
  Task      270 on host co1016 reporting.
  Task      271 on host co1016 reporting.
  Task      272 on host co1016 reporting.
  Task      273 on host co1016 reporting.
  Task      274 on host co1016 reporting.
  Task      275 on host co1016 reporting.
  Task      276 on host co1016 reporting.
  Task      277 on host co1016 reporting.
  Task      278 on host co1016 reporting.
  Task      279 on host co1016 reporting.
  Task      280 on host co1017 reporting.
  Task      281 on host co1017 reporting.
  Task      282 on host co1017 reporting.
  Task      283 on host co1017 reporting.
  Task      284 on host co1017 reporting.
  Task      285 on host co1017 reporting.
  Task      286 on host co1017 reporting.
  Task      287 on host co1017 reporting.
  Task      288 on host co1017 reporting.
  Task      289 on host co1017 reporting.
  Task      290 on host co1017 reporting.
  Task      291 on host co1017 reporting.
  Task      292 on host co1017 reporting.
  Task      293 on host co1017 reporting.
  Task      294 on host co1017 reporting.
  Task      295 on host co1017 reporting.
  Task      296 on host co1017 reporting.
  Task      297 on host co1017 reporting.
  Task      298 on host co1017 reporting.
  Task      299 on host co1017 reporting.
  Task      300 on host co1017 reporting.
  Task      301 on host co1017 reporting.
  Task      302 on host co1017 reporting.
  Task      303 on host co1017 reporting.
  Task      304 on host co1017 reporting.
  Task      305 on host co1017 reporting.
  Task      306 on host co1017 reporting.
  Task      307 on host co1017 reporting.
  Task      308 on host co1017 reporting.
  Task      309 on host co1017 reporting.
  Task      310 on host co1017 reporting.
  Task      311 on host co1017 reporting.
  Task      312 on host co1017 reporting.
  Task      313 on host co1017 reporting.
  Task      314 on host co1017 reporting.
  Task      315 on host co1017 reporting.
  Task      316 on host co1017 reporting.
  Task      317 on host co1017 reporting.
  Task      318 on host co1017 reporting.
  Task      319 on host co1017 reporting.
  Task      320 on host co1018 reporting.
  Task      321 on host co1018 reporting.
  Task      322 on host co1018 reporting.
  Task      323 on host co1018 reporting.
  Task      324 on host co1018 reporting.
  Task      325 on host co1018 reporting.
  Task      326 on host co1018 reporting.
  Task      327 on host co1018 reporting.
  Task      328 on host co1018 reporting.
  Task      329 on host co1018 reporting.
  Task      330 on host co1018 reporting.
  Task      331 on host co1018 reporting.
  Task      332 on host co1018 reporting.
  Task      333 on host co1018 reporting.
  Task      334 on host co1018 reporting.
  Task      335 on host co1018 reporting.
  Task      336 on host co1018 reporting.
  Task      337 on host co1018 reporting.
  Task      338 on host co1018 reporting.
  Task      339 on host co1018 reporting.
  Task      340 on host co1018 reporting.
  Task      341 on host co1018 reporting.
  Task      342 on host co1018 reporting.
  Task      343 on host co1018 reporting.
  Task      344 on host co1018 reporting.
  Task      345 on host co1018 reporting.
  Task      346 on host co1018 reporting.
  Task      347 on host co1018 reporting.
  Task      348 on host co1018 reporting.
  Task      349 on host co1018 reporting.
  Task      350 on host co1018 reporting.
  Task      351 on host co1018 reporting.
  Task      352 on host co1018 reporting.
  Task      353 on host co1018 reporting.
  Task      354 on host co1018 reporting.
  Task      355 on host co1018 reporting.
  Task      356 on host co1018 reporting.
  Task      357 on host co1018 reporting.
  Task      358 on host co1018 reporting.
  Task      359 on host co1018 reporting.
  Task      360 on host co1019 reporting.
  Task      361 on host co1019 reporting.
  Task      362 on host co1019 reporting.
  Task      363 on host co1019 reporting.
  Task      364 on host co1019 reporting.
  Task      365 on host co1019 reporting.
  Task      366 on host co1019 reporting.
  Task      367 on host co1019 reporting.
  Task      368 on host co1019 reporting.
  Task      369 on host co1019 reporting.
  Task      370 on host co1019 reporting.
  Task      371 on host co1019 reporting.
  Task      372 on host co1019 reporting.
  Task      373 on host co1019 reporting.
  Task      374 on host co1019 reporting.
  Task      375 on host co1019 reporting.
  Task      376 on host co1019 reporting.
  Task      377 on host co1019 reporting.
  Task      378 on host co1019 reporting.
  Task      379 on host co1019 reporting.
  Task      380 on host co1019 reporting.
  Task      381 on host co1019 reporting.
  Task      382 on host co1019 reporting.
  Task      383 on host co1019 reporting.
  Task      384 on host co1019 reporting.
  Task      385 on host co1019 reporting.
  Task      386 on host co1019 reporting.
  Task      387 on host co1019 reporting.
  Task      388 on host co1019 reporting.
  Task      389 on host co1019 reporting.
  Task      390 on host co1019 reporting.
  Task      391 on host co1019 reporting.
  Task      392 on host co1019 reporting.
  Task      393 on host co1019 reporting.
  Task      394 on host co1019 reporting.
  Task      395 on host co1019 reporting.
  Task      396 on host co1019 reporting.
  Task      397 on host co1019 reporting.
  Task      398 on host co1019 reporting.
  Task      399 on host co1019 reporting.

  Performing system and environment tests:
  | Environment variable OMP_NUM_THREADS correctly set to 1.
  | Checking for ScaLAPACK...
  | Testing pdtran()...
  | All pdtran() tests passed.

  Obtaining array dimensions for all initial allocations:
  
  -----------------------------------------------------------------------
  Parsing control.in (first pass over file, find array dimensions only).
  The contents of control.in will be repeated verbatim below
  unless switched off by setting 'verbatim_writeout .false.' .
  in the first line of control.in .
  -----------------------------------------------------------------------
  
  xc                 hse06  0.11
  hse_unit b
  spin               collinear
  default_initial_moment 1
  charge      0.0
  relativistic       atomic_zora scalar
  #elsi_restart read
  # SCF settings
  output dos_tetrahedron -20 2 4001
  #output atom_proj_dos_tetrahedron -20 2 4001
  output species_proj_dos_tetrahedron -20 2 4001
  occupation_type gaussian       0.1
  # k-grid settings  (to be adjusted)
  k_grid  4 4 1
  use_local_index .true.
  empty_states 18
  # sc_accuracy_rho    1E-4
  #    sc_accuracy_eev    1E-3
  #    sc_accuracy_etot   1E-4
  #    sc_accuracy_forces 1E-2
  use_dipole_correction
  #frozen_core_scf .true.
  #frozen_core_scf_cutoff -300
  #calculate_fock_matrix_version 5
  many_body_dispersion_nl    beta=0.83
  ################################################################################
  #
  #  FHI-aims code project
  #  Volker Blum, 2018
  #
  #  Suggested "intermediate" defaults for Se atom (to be pasted into control.in file)
  #
  #  2020/09/15 These "intermediate" settings are identical to past "tight" defaults
  #             and differ only in the "g" function that is now included in "tight".
  #
  ################################################################################
    species        Se
  #     global species definitions
      nucleus             34
      mass                78.96
  #
      l_hartree           6
  #
      cut_pot             4.0          2.0  1.0
      basis_dep_cutoff    1e-4
  #
      radial_base         55 7.0
      radial_multiplier   2
      angular_grids       specified
        division   0.0830  110
        division   0.1357  194
        division   0.7377  302
        division   0.8610  434
  #      division   0.9640  590
  #      division   1.0773  770
  #      division   2.5539  974
  #      outer_grid  974
        outer_grid  434
  ################################################################################
  #
  #  Definition of "minimal" basis
  #
  ################################################################################
  #     valence basis states
      valence      4  s   2.
      valence      4  p   4.
      valence      3  d  10.
  #     ion occupancy
      ion_occ      4  s   1.
      ion_occ      4  p   3.
      ion_occ      3  d  10.
  ################################################################################
  #
  #  Suggested additional basis functions. For production calculations,
  #  uncomment them one after another (the most important basis functions are
  #  listed first).
  #
  #  Constructed for dimers: 1.85 A, 2.15 A, 2.50 A, 3.00 A, 4.00 A
  #
  ################################################################################
  #  "First tier" - improvements: -336.21 meV to -36.85 meV
       hydro 3 d 4.3
       hydro 2 p 1.6
       hydro 4 f 7.2
       ionic 4 s auto
  #  "Second tier" - improvements: -14.39 meV to -1.49 meV
  #     hydro 5 g 10.4
  #     hydro 4 p 4.5
  #     hydro 4 d 6.2
  #     hydro 4 f 11.2
  #     hydro 1 s 0.65
  #     hydro 6 h 15.2
  #  "Third tier" - improvements: -0.46 meV and below
  #     hydro 5 g 14.4
  #     ionic 4 d auto
  #     hydro 4 f 22.4
  #     hydro 5 f 7.4
  #     hydro 5 p 8
  #     hydro 5 s 9.4
  #  "Fourth tier" - improvements: -0.12 meV and below
  #     hydro 5 d 11.6
  #     hydro 6 h 18
  #     hydro 4 p 4
  #     hydro 5 f 16
  #     hydro 4 s 3.9
  
  
  ################################################################################
  #
  #  FHI-aims code project
  #  Volker Blum, 2018
  #
  #  Suggested "intermediate" defaults for S atom (to be pasted into control.in file)
  #
  ################################################################################
    species        S
  #     global species definitions
      nucleus             16
      mass                32.065
  #
      l_hartree           6
  #
      cut_pot             4.0          2.0  1.0
      basis_dep_cutoff    1e-4
  #
      radial_base         44 7.0
      radial_multiplier   2
      angular_grids       specified
        division   0.4665  110
        division   0.5810  194
        division   0.7139  302
        division   0.8274  434
  #      division   0.9105  590
  #      division   1.0975  770
  #      division   1.2028  974
  #      outer_grid  974
        outer_grid  434
  ################################################################################
  #
  #  Definition of "minimal" basis
  #
  ################################################################################
  #     valence basis states
      valence      3  s   2.
      valence      3  p   4.
  #     ion occupancy
      ion_occ      3  s   1.
      ion_occ      3  p   3.
  ################################################################################
  #
  #  Suggested additional basis functions. For production calculations,
  #  uncomment them one after another (the most important basis functions are
  #  listed first).
  #
  #  Constructed for dimers: 1.6 A, 1.9 A, 2.5 A, 3.25 A, 4.0 A
  #
  ################################################################################
  #  "First tier" - improvements: -652.81 meV to -45.53 meV
       ionic 3 d auto
       hydro 2 p 1.8
       hydro 4 f 7
       ionic 3 s auto
  #  "Second tier" - improvements: -30.20 meV to -1.74 meV
  #     hydro 4 d 6.2
  for_aux     hydro 5 g 10.8
  #     hydro 4 p 4.9
  #     hydro 5 f 10
  #     hydro 1 s 0.8
  #  "Third tier" - improvements: -1.04 meV to -0.20 meV
  #     hydro 3 d 3.9
  #     hydro 3 d 2.7
  #     hydro 5 g 12
  #     hydro 4 p 10.4
  #     hydro 5 f 12.4
  #     hydro 2 s 1.9
  #  "Fourth tier" - improvements: -0.35 meV to -0.06 meV
  #     hydro 4 d 10.4
  #     hydro 4 p 7.2
  #     hydro 4 d 10
  #     hydro 5 g 19.2
  #     hydro 4 s 12
  
  ################################################################################
  #
  #  FHI-aims code project
  # Volker Blum, Fritz Haber Institute Berlin, 2009
  #
  #  Suggested "intermediate" defaults for Mo atom (to be pasted into control.in file)
  #
  #  See https://aaltodoc.aalto.fi/handle/123456789/33620 for the report these
  #  setting are based on
  ################################################################################
    species        Mo
  #     global species definitions
      nucleus             42
      mass                95.94
  #
      l_hartree           6
  #
      cut_pot             4.0  2.0  1.0
      basis_dep_cutoff    1e-4
  #
      radial_base         59 7.0
      radial_multiplier   2
      angular_grids specified
        division   0.3117   50
        division   0.6750  110
        division   1.0351  194
        division   1.2073  302
        division   1.6402  434
  #      division   1.9185  590
  #      division   2.0237  770
  #      division   2.0980  974
  #      division   2.7972 1202
  #      outer_grid  974
        outer_grid  434
  ################################################################################
  #
  #  Definition of "minimal" basis
  #
  ################################################################################
  #     valence basis states
      valence      5  s   1.
      valence      4  p   6.
      valence      4  d   5.
  #     ion occupancy
      ion_occ     5  s   0.
      ion_occ     4  p   6.
      ion_occ     4  d   4.
  ################################################################################
  #
  #  Suggested additional basis functions. For production calculations,
  #  uncomment them one after another (the most important basis functions are
  #  listed first).
  #
  #  Constructed for dimers: 1.675 A, 1.9 A, 2.375 A, 3.00 A, 4.00 A
  #
  ################################################################################
  #  "First tier"  - max. impr. -711.23  meV, min. impr. -21.07 meV
       hydro 4 f 8.4
       hydro 3 d 2.8
       ionic 5 p auto
       for_aux hydro 5 g 12
       ionic 5 s auto
  #  "Second tier" - max. impr. -39.38  meV, min. impr. -2.68 meV
  #     hydro 4 f 12.4
  #     hydro 3 d 3.3
  #     hydro 6 h 17.2
  #     hydro 4 f 7.6
  #     hydro 3 p 3.0
  #     hydro 1 s 0.65
  #  "Third tier"  - max. impr. -5.50 meV, min. impr. -0.47 meV
  #     hydro 4 f 29.2
  #     hydro 5 g 11.2
  #     hydro 3 d 6.8
  #     hydro 6 h 14.8
  #     hydro 2 p 2.3
  #     hydro 4 s 3.8
  #  "Fourth tier"  - max. impr. -0.58 meV, min. impr. -0.19 meV
  #     hydro 5 f 6.8
  #     hydro 5 d 14.8
  #     hydro 6 s 7.8
  #     hydro 5 g 20.8
  #     hydro 5 d 10.4
  #     hydro 5 p 9.8
  #  Further functions - -0.17 meV and below
  #     hydro 5 d 3.2
  ################################################################################
  #
  #  FHI-aims code project
  #  Volker Blum, Maria Dragoumi, Sebastian Kokott 2020
  #
  #  Suggested "intermediate" defaults for W atom (to be pasted into control.in file)
  #
  ################################################################################
    species          W
  #     global species definitions
      nucleus        74
      mass           183.84
  #
      l_hartree      6
  #
      cut_pot        4.0  2.0  1.0
      basis_dep_cutoff    1e-4
  #
      radial_base    71  7.0
      radial_multiplier  2
      angular_grids specified
        division   0.2901   50
        division   0.6986  110
        division   1.0528  194
        division   1.2659  302
        division   1.5223  434
  #      division   1.8111  590
  #      division   2.0105  770
  #      division   2.0413  974
  #      division   2.8804 1202
  #      outer_grid  974
        outer_grid  434
  ################################################################################
  #
  #  Definition of "minimal" basis
  #
  ################################################################################
  #     valence basis states
      valence      6  s   2.
      valence      5  p   6.
      valence      5  d   4.
      valence      4  f  14.
  #     ion occupancy
      ion_occ      6  s   1.
      ion_occ      5  p   6.
      ion_occ      5  d   3.
      ion_occ      4  f  14.
  ################################################################################
  #
  #  Suggested additional basis functions. For production calculations,
  #  uncomment them one after another (the most important basis functions are
  #  listed first).
  #
  #  Constructed for dimers: 1.775, 1.99, 2.50, 3.25, 4.50 AA
  #
  ################################################################################
  #
  #  "First tier" - improvements: -603.77 meV to -28.99 meV
       hydro 4 f 7.8
       hydro 4 d 5.8
       ionic 6 p auto
    for_aux   hydro 5 g 12.4
       ionic 6 s auto
  #  "Second tier" - improvements: -28.30 meV to -1.31 meV
  #     hydro 6 h 16.8
  #     ionic 5 d auto
  #     hydro 4 f 8.6
  #     hydro 5 g 16.8
  #     hydro 5 d 8.4
  #     hydro 3 p 3.3
  #     hydro 1 s 0.55
  #  "Third tier" - max. impr. -1.79 meV, min. impr. -0.26 meV
  #     hydro 5 f 10.8
  #     hydro 5 g 34.4
  #     hydro 6 h 20.8
  #     hydro 5 g 12.8
  #     hydro 2 p 1.6
  #     hydro 4 s 4.7
  #     hydro 6 d 18.4
  #  "Fourth tier" -0.46 max. impr. - meV, min. impr. -0.09 meV
  #     hydro 6 h 21.6
  #     hydro 5 f 22.4
  #     hydro 4 f 4
  #     hydro 5 p 9.6
  #     hydro 6 d 17.2
  #     hydro 3 p 5.2
  #     hydro 5 g 4.7
  #     hydro 6 s 7.6
  ################################################################################
  #
  #  FHI-aims code project
  #  VB, Fritz-Haber Institut, 2009
  #
  #  Suggested "light" defaults for Au atom (to be pasted into control.in file)
  #  Be sure to double-check any results obtained with these settings for post-processing,
  #  e.g., with the "tight" defaults and larger basis sets.
  #
  ################################################################################
    species        Au
  #     global species definitions
      nucleus             79
      mass                196.966569
  #
      l_hartree           4
  #
      cut_pot             3.5  1.5  1.0
      basis_dep_cutoff    1e-4
  #
      radial_base         73 5.0
      radial_multiplier   1
      angular_grids specified
        division   0.5066   50
        division   0.9861  110
        division   1.2821  194
        division   1.5344  302
  #      division   2.0427  434
  #      division   2.1690  590
  #      division   2.2710  770
  #      division   2.3066  974
  #      division   2.7597 1202
  #      outer_grid 974
        outer_grid 302
  ################################################################################
  #
  #  Definition of "minimal" basis
  #
  ################################################################################
  #     valence basis states
      valence      6  s   1.
      valence      5  p   6.
      valence      5  d  10.
      valence      4  f  14.
  #     ion occupancy
      ion_occ     6  s   0.
      ion_occ     5  p   6.
      ion_occ     5  d   9.
      ion_occ     4  f   14.
  ################################################################################
  #
  #  Suggested additional basis functions. For production calculations,
  #  uncomment them one after another (the most important basis functions are
  #  listed first).
  #
  #  Constructed for dimers: 2.10, 2.45, 3.00, 4.00 AA
  #
  ################################################################################
  #  "First tier" - max. impr. -161.60  meV, min. impr. -4.53 meV
       ionic 6 p auto
       hydro 4 f 7.4
       ionic 6 s auto
  #     hydro 5 g 10
  #     hydro 6 h 12.8
       hydro 3 d 2.5
  #  "Second tier" - max. impr. -2.46  meV, min. impr. -0.28 meV
  #     hydro 5 f 14.8
  #     hydro 4 d 3.9
  #     hydro 3 p 3.3
  #     hydro 1 s 0.45
  #     hydro 5 g 16.4
  #     hydro 6 h 13.6
  #  "Third tier" - max. impr. -0.49  meV, min. impr. -0.09 meV
  #     hydro 4 f 5.2
  #     hydro 4 d 5
  #     hydro 5 g 8
  #     hydro 5 p 8.2
  #     hydro 6 d 12.4
  #     hydro 6 s 14.8
  #  Further basis functions: -0.08 meV and below
  #     hydro 5 f 18.8
  #     hydro 5 g 20
  #    hydro 5 g 15.2
  
  -----------------------------------------------------------------------
  Completed first pass over input file control.in .
  -----------------------------------------------------------------------
  
  
  -----------------------------------------------------------------------
  Parsing geometry.in (first pass over file, find array dimensions only).
  The contents of geometry.in will be repeated verbatim below
  unless switched off by setting 'verbatim_writeout .false.' .
  in the first line of geometry.in .
  -----------------------------------------------------------------------
  
  #=======================================================
  # FHI-aims file: geometry_1.in
  # Created using the Atomic Simulation Environment (ASE)
  # Tue Aug  9 16:44:38 2022
  #=======================================================
  lattice_vector 25.1538980800000012 -0.0020923200000000 0.0000000000000000
  lattice_vector -12.5786130400000005 21.7826203999999990 0.0000000000000000
  lattice_vector 0.0000000000000000 0.0000000000000000 103.1080520499999835
  atom 11.7892473399999993 21.3268517800000019 51.5540259599999899 Mo
  atom 0.7860311799999999 0.4536968600000000 53.1080520499999835 S
  atom 0.7860311699999999 0.4536968599999999 49.9999999999999929 S
  atom 22.7955337500000006 2.2670589299999993 51.5540259599999899 Mo
  atom -0.7862954500000001 3.1765244099999994 53.1080520499999835 S
  atom -0.7862954599999999 3.1765244099999994 49.9999999999999929 S
  atom 21.2232071200000014 4.9898864800000000 51.5540259599999899 Mo
  atom -2.3586220800000000 5.8993519599999997 53.1080520499999835 S
  atom -2.3586220899999999 5.8993519599999997 49.9999999999999929 S
  atom 19.6508804900000023 7.7127140299999990 51.5540259599999899 Mo
  atom -3.9309487100000000 8.6221795099999987 53.1080520499999835 S
  atom -3.9309487200000000 8.6221795099999987 49.9999999999999929 S
  atom 18.0785538600000031 10.4355415799999989 51.5540259599999899 Mo
  atom -5.5032753400000001 11.3450070599999986 53.1080520499999835 S
  atom -5.5032753500000000 11.3450070599999986 49.9999999999999929 S
  atom 16.5062272300000004 13.1583691299999987 51.5540259599999899 Mo
  atom -7.0756019699999992 14.0678346099999967 53.1080520499999835 S
  atom -7.0756019800000001 14.0678346099999985 49.9999999999999929 S
  atom 14.9339006000000012 15.8811966799999986 51.5540259599999899 Mo
  atom -8.6479286000000002 16.7906621600000001 53.1080520499999835 S
  atom -8.6479286100000010 16.7906621600000001 49.9999999999999929 S
  atom 13.3615739700000020 18.6040242299999967 51.5540259599999899 Mo
  atom -10.2202552300000011 19.5134897099999982 53.1080520499999835 S
  atom -10.2202552400000020 19.5134897099999982 49.9999999999999929 S
  atom -10.2204134800000013 21.3286825600000007 51.5540259599999899 Mo
  atom 3.9302684399999999 0.4534353200000000 53.1080520499999835 S
  atom 3.9302684299999999 0.4534353199999999 49.9999999999999929 S
  atom 0.7858729300000000 2.2688897099999998 51.5540259599999899 Mo
  atom 2.3579418099999998 3.1762628699999995 53.1080520499999835 S
  atom 2.3579417999999994 3.1762628700000000 49.9999999999999929 S
  atom -0.7864536999999998 4.9917172599999997 51.5540259599999899 Mo
  atom 0.7856151800000000 5.8990904199999994 53.1080520499999835 S
  atom 0.7856151699999997 5.8990904199999985 49.9999999999999929 S
  atom -2.3587803299999996 7.7145448099999987 51.5540259599999899 Mo
  atom -0.7867114500000003 8.6219179699999984 53.1080520499999835 S
  atom -0.7867114600000006 8.6219179699999966 49.9999999999999929 S
  atom -3.9311069599999997 10.4373723599999977 51.5540259599999899 Mo
  atom -2.3590380799999995 11.3447455200000000 53.1080520499999835 S
  atom -2.3590380900000003 11.3447455200000000 49.9999999999999929 S
  atom -5.5034335899999993 13.1601999099999976 51.5540259599999899 Mo
  atom -3.9313647099999995 14.0675730699999963 53.1080520499999835 S
  atom -3.9313647200000008 14.0675730699999963 49.9999999999999929 S
  atom -7.0757602199999994 15.8830274599999974 51.5540259599999899 Mo
  atom -5.5036913399999996 16.7904006199999998 53.1080520499999835 S
  atom -5.5036913500000004 16.7904006199999998 49.9999999999999929 S
  atom -8.6480868500000003 18.6058550099999955 51.5540259599999899 Mo
  atom -7.0760179700000014 19.5132281699999979 53.1080520499999835 S
  atom -7.0760179800000005 19.5132281699999979 49.9999999999999929 S
  atom -7.0761762199999998 21.3284210200000004 51.5540259599999899 Mo
  atom 7.0745057000000005 0.4531737800000000 53.1080520499999835 S
  atom 7.0745056900000005 0.4531737799999999 49.9999999999999929 S
  atom 3.9301101900000002 2.2686281699999999 51.5540259599999899 Mo
  atom 5.5021790700000004 3.1760013299999996 53.1080520499999835 S
  atom 5.5021790600000005 3.1760013300000001 49.9999999999999929 S
  atom 2.3577835600000001 4.9914557200000003 51.5540259599999899 Mo
  atom 3.9298524400000003 5.8988288799999999 53.1080520499999835 S
  atom 3.9298524300000004 5.8988288799999991 49.9999999999999929 S
  atom 0.7854569300000006 7.7142832699999984 51.5540259599999899 Mo
  atom 2.3575258100000003 8.6216564299999980 53.1080520499999835 S
  atom 2.3575258000000008 8.6216564299999963 49.9999999999999929 S
  atom -0.7868696999999995 10.4371108199999991 51.5540259599999899 Mo
  atom 0.7851991800000004 11.3444839799999997 53.1080520499999835 S
  atom 0.7851991700000004 11.3444839799999997 49.9999999999999929 S
  atom -2.3591963300000005 13.1599383699999990 51.5540259599999899 Mo
  atom -0.7871274499999992 14.0673115299999960 53.1080520499999835 S
  atom -0.7871274599999992 14.0673115299999960 49.9999999999999929 S
  atom -3.9315229600000006 15.8827659199999989 51.5540259599999899 Mo
  atom -2.3594540799999999 16.7901390799999994 53.1080520499999835 S
  atom -2.3594540900000007 16.7901390799999994 49.9999999999999929 S
  atom -5.5038495899999988 18.6055934699999952 51.5540259599999899 Mo
  atom -3.9317807100000008 19.5129666299999975 53.1080520499999835 S
  atom -3.9317807199999999 19.5129666299999975 49.9999999999999929 S
  atom -3.9319389600000014 21.3281594800000001 51.5540259599999899 Mo
  atom 10.2187429600000002 0.4529122399999999 53.1080520499999835 S
  atom 10.2187429499999993 0.4529122399999999 49.9999999999999929 S
  atom 7.0743474500000003 2.2683666299999996 51.5540259599999899 Mo
  atom 8.6464163299999992 3.1757397899999997 53.1080520499999835 S
  atom 8.6464163200000002 3.1757397899999997 49.9999999999999929 S
  atom 5.5020208200000003 4.9911941799999990 51.5540259599999899 Mo
  atom 7.0740897000000000 5.8985673399999996 53.1080520499999835 S
  atom 7.0740896900000010 5.8985673399999978 49.9999999999999929 S
  atom 3.9296941899999998 7.7140217299999998 51.5540259599999899 Mo
  atom 5.5017630700000000 8.6213948899999995 53.1080520499999835 S
  atom 5.5017630599999992 8.6213948900000013 49.9999999999999929 S
  atom 2.3573675599999988 10.4368492800000006 51.5540259599999899 Mo
  atom 3.9294364399999999 11.3442224399999976 53.1080520499999835 S
  atom 3.9294364300000000 11.3442224399999994 49.9999999999999929 S
  atom 0.7850409299999987 13.1596768300000004 51.5540259599999899 Mo
  atom 2.3571098099999999 14.0670499899999992 53.1080520499999835 S
  atom 2.3571097999999999 14.0670499899999992 49.9999999999999929 S
  atom -0.7872857000000002 15.8825043799999950 51.5540259599999899 Mo
  atom 0.7847831800000000 16.7898775399999991 53.1080520499999835 S
  atom 0.7847831700000013 16.7898775399999955 49.9999999999999929 S
  atom -2.3596123300000005 18.6053319299999949 51.5540259599999899 Mo
  atom -0.7875434500000018 19.5127050899999972 53.1080520499999835 S
  atom -0.7875434600000001 19.5127050899999972 49.9999999999999929 S
  atom -0.7877017000000008 21.3278979399999997 51.5540259599999899 Mo
  atom 13.3629802200000007 0.4526506999999999 53.1080520499999835 S
  atom 13.3629802100000017 0.4526506999999999 49.9999999999999929 S
  atom 10.2185847100000000 2.2681050899999993 51.5540259599999899 Mo
  atom 11.7906535899999998 3.1754782499999998 53.1080520499999835 S
  atom 11.7906535799999990 3.1754782499999994 49.9999999999999929 S
  atom 8.6462580800000008 4.9909326399999996 51.5540259599999899 Mo
  atom 10.2183269600000006 5.8983057999999993 53.1080520499999835 S
  atom 10.2183269500000034 5.8983057999999993 49.9999999999999929 S
  atom 7.0739314500000017 7.7137601899999995 51.5540259599999899 Mo
  atom 8.6460003300000015 8.6211333499999991 53.1080520499999835 S
  atom 8.6460003200000024 8.6211333500000009 49.9999999999999929 S
  atom 5.5016048200000007 10.4365877399999984 51.5540259599999899 Mo
  atom 7.0736737000000005 11.3439608999999972 53.1080520499999835 S
  atom 7.0736736900000023 11.3439608999999990 49.9999999999999929 S
  atom 3.9292781900000007 13.1594152899999983 51.5540259599999899 Mo
  atom 5.5013470700000004 14.0667884499999989 53.1080520499999835 S
  atom 5.5013470600000023 14.0667884499999989 49.9999999999999929 S
  atom 2.3569515600000002 15.8822428399999964 51.5540259599999899 Mo
  atom 3.9290204400000004 16.7896159999999952 53.1080520499999835 S
  atom 3.9290204300000036 16.7896159999999952 49.9999999999999929 S
  atom 0.7846249300000003 18.6050703899999945 51.5540259599999899 Mo
  atom 2.3566938100000003 19.5124435500000004 53.1080520499999835 S
  atom 2.3566938000000022 19.5124435500000004 49.9999999999999929 S
  atom 2.3565355599999998 21.3276363999999994 51.5540259599999899 Mo
  atom 16.5072174800000013 0.4523891599999999 53.1080520499999835 S
  atom 16.5072174700000005 0.4523891599999999 49.9999999999999929 S
  atom 13.3628219700000006 2.2678435499999998 51.5540259599999899 Mo
  atom 14.9348908500000022 3.1752167099999995 53.1080520499999835 S
  atom 14.9348908400000013 3.1752167099999995 49.9999999999999929 S
  atom 11.7904953400000014 4.9906711000000001 51.5540259599999899 Mo
  atom 13.3625642200000012 5.8980442599999998 53.1080520499999835 S
  atom 13.3625642100000022 5.8980442599999998 49.9999999999999929 S
  atom 10.2181687100000040 7.7134986500000000 51.5540259599999899 Mo
  atom 11.7902375900000020 8.6208718099999988 53.1080520499999835 S
  atom 11.7902375800000012 8.6208718100000006 49.9999999999999929 S
  atom 8.6458420800000013 10.4363261999999981 51.5540259599999899 Mo
  atom 10.2179109599999993 11.3436993599999969 53.1080520499999835 S
  atom 10.2179109500000020 11.3436993599999987 49.9999999999999929 S
  atom 7.0735154500000013 13.1591537499999980 51.5540259599999899 Mo
  atom 8.6455843299999984 14.0665269099999986 53.1080520499999835 S
  atom 8.6455843200000011 14.0665269099999986 49.9999999999999929 S
  atom 5.5011888200000012 15.8819812999999961 51.5540259599999899 Mo
  atom 7.0732576999999992 16.7893544599999949 53.1080520499999835 S
  atom 7.0732576900000028 16.7893544599999949 49.9999999999999929 S
  atom 3.9288621900000007 18.6048088499999942 51.5540259599999899 Mo
  atom 5.5009310700000009 19.5121820100000001 53.1080520499999835 S
  atom 5.5009310600000010 19.5121820100000001 49.9999999999999929 S
  atom 5.5007728199999990 21.3273748599999990 51.5540259599999899 Mo
  atom 19.6514547399999984 0.4521276199999999 53.1080520499999835 S
  atom 19.6514547300000011 0.4521276199999999 49.9999999999999929 S
  atom 16.5070592299999994 2.2675820099999999 51.5540259599999899 Mo
  atom 18.0791281099999992 3.1749551699999996 53.1080520499999835 S
  atom 18.0791281000000019 3.1749551700000000 49.9999999999999929 S
  atom 14.9347326000000002 4.9904095599999989 51.5540259599999899 Mo
  atom 16.5068014800000036 5.8977827199999995 53.1080520499999835 S
  atom 16.5068014699999992 5.8977827199999986 49.9999999999999929 S
  atom 13.3624059700000011 7.7132371099999988 51.5540259599999899 Mo
  atom 14.9344748499999991 8.6206102700000002 53.1080520499999835 S
  atom 14.9344748399999983 8.6206102700000002 49.9999999999999929 S
  atom 11.7900793400000001 10.4360646599999978 51.5540259599999899 Mo
  atom 13.3621482199999999 11.3434378199999966 53.1080520499999835 S
  atom 13.3621482099999991 11.3434378199999966 49.9999999999999929 S
  atom 10.2177527100000010 13.1588922099999976 51.5540259599999899 Mo
  atom 11.7898215900000025 14.0662653700000000 53.1080520499999835 S
  atom 11.7898215799999981 14.0662653699999982 49.9999999999999929 S
  atom 8.6454260799999982 15.8817197600000011 51.5540259599999899 Mo
  atom 10.2174949600000016 16.7890929199999981 53.1080520499999835 S
  atom 10.2174949499999990 16.7890929199999981 49.9999999999999929 S
  atom 7.0730994500000017 18.6045473099999974 51.5540259599999899 Mo
  atom 8.6451683299999988 19.5119204699999997 53.1080520499999835 S
  atom 8.6451683199999980 19.5119204699999997 49.9999999999999929 S
  atom 8.6450100799999987 21.3271133199999987 51.5540259599999899 Mo
  atom 22.7956919999999990 0.4518660800000000 53.1080520499999835 S
  atom 22.7956919900000017 0.4518660800000000 49.9999999999999929 S
  atom 19.6512964900000000 2.2673204699999996 51.5540259599999899 Mo
  atom 21.2233653699999998 3.1746936299999997 53.1080520499999835 S
  atom 21.2233653600000025 3.1746936299999997 49.9999999999999929 S
  atom 18.0789698600000008 4.9901480200000004 51.5540259599999899 Mo
  atom 19.6510387400000006 5.8975211799999991 53.1080520499999835 S
  atom 19.6510387300000033 5.8975211799999991 49.9999999999999929 S
  atom 16.5066432299999981 7.7129755699999984 51.5540259599999899 Mo
  atom 18.0787121099999979 8.6203487299999999 53.1080520499999835 S
  atom 18.0787121000000006 8.6203487299999981 49.9999999999999929 S
  atom 14.9343166000000007 10.4358031199999992 51.5540259599999899 Mo
  atom 16.5063854799999987 11.3431762799999962 53.1080520499999835 S
  atom 16.5063854700000014 11.3431762799999962 49.9999999999999929 S
  atom 13.3619899700000015 13.1586306699999991 51.5540259599999899 Mo
  atom 14.9340588499999996 14.0660038299999961 53.1080520499999835 S
  atom 14.9340588400000023 14.0660038299999997 49.9999999999999929 S
  atom 11.7896633400000024 15.8814582200000007 51.5540259599999899 Mo
  atom 13.3617322199999986 16.7888313799999978 53.1080520499999835 S
  atom 13.3617322099999996 16.7888313799999978 49.9999999999999929 S
  atom 10.2173367099999979 18.6042857699999971 51.5540259599999899 Mo
  atom 11.7894055899999994 19.5116589299999994 53.1080520499999835 S
  atom 11.7894055799999986 19.5116589299999994 49.9999999999999929 S
  
  -----------------------------------------------------------------------
  Completed first pass over input file geometry.in .
  -----------------------------------------------------------------------
  

  Basic array size parameters:
  | Number of species                 :        5
  | Number of atoms                   :      192
  | Number of lattice vectors         :        3
  | Max. basis fn. angular momentum   :        4
  | Max. atomic/ionic basis occupied n:        6
  | Max. number of basis fn. types    :        3
  | Max. radial fns per species/type  :       14
  | Max. logarithmic grid size        :     1488
  | Max. radial integration grid size :      143
  | Max. angular integration grid size:      434
  | Max. angular grid division number :        8
  | Radial grid for Hartree potential :     1488
  | Number of spin channels           :        2

------------------------------------------------------------
          Reading file control.in.
------------------------------------------------------------

  XC: Using HSE-functional with OMEGA =  0.110000E+00 <units>.
  XC: For the actual units (bohr^-1 or Angstrom^-1), see below.
  hse_unit: Unit for the HSE06 hybrid functional screening parameter set to bohr^(-1).
  Spin treatment: Spin density functional theory - collinear spins.
  Initial spin moment per atom:   1.0000
  Charge =   0.000000E+00: Neutral system requested explicitly.
  Scalar relativistic treatment of kinetic energy: on-site free-atom approximation to ZORA.
  Calculating density of states with
  | energy interval :-20.000000  2.000000
  | points & tetrahedron method :  4001
  Calculating angular-momentum projected DOS with 
  | energy interval :-20.000000  2.000000
  | points & tetrahedron :  4001
  Occupation type: Gaussian broadening, width =   0.100000E+00 eV.
  Found k-point grid:         4         4         1
  Storing only matrices local to each thread.
  Number of empty states per atom:       18
  Using dipole correction.
  Using libMBD for calculating MBD and TS energies
 
  Reading configuration options for species Se                  .
  | Found nuclear charge :  34.0000
  | Found atomic mass :    78.9600000000000      amu
  | Found l_max for Hartree potential  :   6
  | Found cutoff potl. onset [A], width [A], scale factor :    4.00000    2.00000    1.00000
  | Threshold for basis-dependent cutoff potential is   0.100000E-03
  | Found data for basic radial integration grid :    55 points, outermost radius =    7.000 A
  | Found multiplier for basic radial grid :   2
  | Found angular grid specification: user-specified.
  | Specified grid contains     5 separate shells.
  | Check grid settings after all constraints further below.
  | Found free-atom valence shell :  4 s   2.000
  | Found free-atom valence shell :  4 p   4.000
  | Found free-atom valence shell :  3 d  10.000
  | Found free-ion valence shell :  4 s   1.000
  | Found free-ion valence shell :  4 p   3.000
  | Found free-ion valence shell :  3 d  10.000
  | Found hydrogenic basis function :  3 d   4.300
  | Found hydrogenic basis function :  2 p   1.600
  | Found hydrogenic basis function :  4 f   7.200
  | Found ionic basis function :  4 s , default cutoff radius.
  Species Se                  : Missing cutoff potential type.
  Defaulting to exp(1/x)/(1-x)^2 type cutoff potential.
  Species Se: No 'logarithmic' tag. Using default grid for free atom:
  | Default logarithmic grid data [bohr] : 0.1000E-03 0.1000E+03 0.1012E+01
  | Will include ionic basis functions of  2.0-fold positive Se                   ion.
  Species Se: On-site basis accuracy parameter (for Gram-Schmidt orthonormalisation) not specified.
  Using default value basis_acc =  0.1000000E-03.
  Species Se                  : Using default innermost maximum threshold i_radial=  2 for radial functions.
  Species Se                  : Default cutoff onset for free atom density etc. : 0.40000000E+01 AA.
  Species Se                  : Basic radial grid will be enhanced according to radial_multiplier =   2, to contain   111 grid points.
 
  Reading configuration options for species S                   .
  | Found nuclear charge :  16.0000
  | Found atomic mass :    32.0650000000000      amu
  | Found l_max for Hartree potential  :   6
  | Found cutoff potl. onset [A], width [A], scale factor :    4.00000    2.00000    1.00000
  | Threshold for basis-dependent cutoff potential is   0.100000E-03
  | Found data for basic radial integration grid :    44 points, outermost radius =    7.000 A
  | Found multiplier for basic radial grid :   2
  | Found angular grid specification: user-specified.
  | Specified grid contains     5 separate shells.
  | Check grid settings after all constraints further below.
  | Found free-atom valence shell :  3 s   2.000
  | Found free-atom valence shell :  3 p   4.000
  | Found free-ion valence shell :  3 s   1.000
  | Found free-ion valence shell :  3 p   3.000
  | Found ionic basis function :  3 d , default cutoff radius.
  | Found hydrogenic basis function :  2 p   1.800
  | Found hydrogenic basis function :  4 f   7.000
  | Found ionic basis function :  3 s , default cutoff radius.
  | Found hydrogenic extended basis function :  5 g  10.800
  Species S                   : Missing cutoff potential type.
  Defaulting to exp(1/x)/(1-x)^2 type cutoff potential.
  Species S : No 'logarithmic' tag. Using default grid for free atom:
  | Default logarithmic grid data [bohr] : 0.1000E-03 0.1000E+03 0.1012E+01
  | Will include ionic basis functions of  2.0-fold positive S                    ion.
  Species S : On-site basis accuracy parameter (for Gram-Schmidt orthonormalisation) not specified.
  Using default value basis_acc =  0.1000000E-03.
  Species S                   : Using default innermost maximum threshold i_radial=  2 for radial functions.
  Species S                   : Default cutoff onset for free atom density etc. : 0.40000000E+01 AA.
  Species S                   : Basic radial grid will be enhanced according to radial_multiplier =   2, to contain    89 grid points.
 
  Reading configuration options for species Mo                  .
  | Found nuclear charge :  42.0000
  | Found atomic mass :    95.9400000000000      amu
  | Found l_max for Hartree potential  :   6
  | Found cutoff potl. onset [A], width [A], scale factor :    4.00000    2.00000    1.00000
  | Threshold for basis-dependent cutoff potential is   0.100000E-03
  | Found data for basic radial integration grid :    59 points, outermost radius =    7.000 A
  | Found multiplier for basic radial grid :   2
  | Found angular grid specification: user-specified.
  | Specified grid contains     6 separate shells.
  | Check grid settings after all constraints further below.
  | Found free-atom valence shell :  5 s   1.000
  | Found free-atom valence shell :  4 p   6.000
  | Found free-atom valence shell :  4 d   5.000
  | Found free-ion valence shell :  5 s   0.000
  | Found free-ion valence shell :  4 p   6.000
  | Found free-ion valence shell :  4 d   4.000
  | Found hydrogenic basis function :  4 f   8.400
  | Found hydrogenic basis function :  3 d   2.800
  | Found ionic basis function :  5 p , default cutoff radius.
  | Found hydrogenic extended basis function :  5 g  12.000
  | Found ionic basis function :  5 s , default cutoff radius.
  Species Mo                  : Missing cutoff potential type.
  Defaulting to exp(1/x)/(1-x)^2 type cutoff potential.
  Species Mo: No 'logarithmic' tag. Using default grid for free atom:
  | Default logarithmic grid data [bohr] : 0.1000E-03 0.1000E+03 0.1012E+01
  | Will include ionic basis functions of  2.0-fold positive Mo                   ion.
  Species Mo: On-site basis accuracy parameter (for Gram-Schmidt orthonormalisation) not specified.
  Using default value basis_acc =  0.1000000E-03.
  Species Mo                  : Using default innermost maximum threshold i_radial=  2 for radial functions.
  Species Mo                  : Default cutoff onset for free atom density etc. : 0.40000000E+01 AA.
  Species Mo                  : Basic radial grid will be enhanced according to radial_multiplier =   2, to contain   119 grid points.
 
  Reading configuration options for species W                   .
  | Found nuclear charge :  74.0000
  | Found atomic mass :    183.840000000000      amu
  | Found l_max for Hartree potential  :   6
  | Found cutoff potl. onset [A], width [A], scale factor :    4.00000    2.00000    1.00000
  | Threshold for basis-dependent cutoff potential is   0.100000E-03
  | Found data for basic radial integration grid :    71 points, outermost radius =    7.000 A
  | Found multiplier for basic radial grid :   2
  | Found angular grid specification: user-specified.
  | Specified grid contains     6 separate shells.
  | Check grid settings after all constraints further below.
  | Found free-atom valence shell :  6 s   2.000
  | Found free-atom valence shell :  5 p   6.000
  | Found free-atom valence shell :  5 d   4.000
  | Found free-atom valence shell :  4 f  14.000
  | Found free-ion valence shell :  6 s   1.000
  | Found free-ion valence shell :  5 p   6.000
  | Found free-ion valence shell :  5 d   3.000
  | Found free-ion valence shell :  4 f  14.000
  | Found hydrogenic basis function :  4 f   7.800
  | Found hydrogenic basis function :  4 d   5.800
  | Found ionic basis function :  6 p , default cutoff radius.
  | Found hydrogenic extended basis function :  5 g  12.400
  | Found ionic basis function :  6 s , default cutoff radius.
  Species W                   : Missing cutoff potential type.
  Defaulting to exp(1/x)/(1-x)^2 type cutoff potential.
  Species W : No 'logarithmic' tag. Using default grid for free atom:
  | Default logarithmic grid data [bohr] : 0.1000E-03 0.1000E+03 0.1012E+01
  | Will include ionic basis functions of  2.0-fold positive W                    ion.
  Species W : On-site basis accuracy parameter (for Gram-Schmidt orthonormalisation) not specified.
  Using default value basis_acc =  0.1000000E-03.
  Species W                   : Using default innermost maximum threshold i_radial=  2 for radial functions.
  Species W                   : Default cutoff onset for free atom density etc. : 0.40000000E+01 AA.
  Species W                   : Basic radial grid will be enhanced according to radial_multiplier =   2, to contain   143 grid points.
 
  Reading configuration options for species Au                  .
  | Found nuclear charge :  79.0000
  | Found atomic mass :    196.966569000000      amu
  | Found l_max for Hartree potential  :   4
  | Found cutoff potl. onset [A], width [A], scale factor :    3.50000    1.50000    1.00000
  | Threshold for basis-dependent cutoff potential is   0.100000E-03
  | Found data for basic radial integration grid :    73 points, outermost radius =    5.000 A
  | Found multiplier for basic radial grid :   1
  | Found angular grid specification: user-specified.
  | Specified grid contains     5 separate shells.
  | Check grid settings after all constraints further below.
  | Found free-atom valence shell :  6 s   1.000
  | Found free-atom valence shell :  5 p   6.000
  | Found free-atom valence shell :  5 d  10.000
  | Found free-atom valence shell :  4 f  14.000
  | Found free-ion valence shell :  6 s   0.000
  | Found free-ion valence shell :  5 p   6.000
  | Found free-ion valence shell :  5 d   9.000
  | Found free-ion valence shell :  4 f  14.000
  | Found ionic basis function :  6 p , default cutoff radius.
  | Found hydrogenic basis function :  4 f   7.400
  | Found ionic basis function :  6 s , default cutoff radius.
  | Found hydrogenic basis function :  3 d   2.500
  Species Au                  : Missing cutoff potential type.
  Defaulting to exp(1/x)/(1-x)^2 type cutoff potential.
  Species Au: No 'logarithmic' tag. Using default grid for free atom:
  | Default logarithmic grid data [bohr] : 0.1000E-03 0.1000E+03 0.1012E+01
  | Will include ionic basis functions of  2.0-fold positive Au                   ion.
  Species Au: On-site basis accuracy parameter (for Gram-Schmidt orthonormalisation) not specified.
  Using default value basis_acc =  0.1000000E-03.
  Species Au                  : Using default innermost maximum threshold i_radial=  2 for radial functions.
  Species Au                  : Default cutoff onset for free atom density etc. : 0.35000000E+01 AA.
  Species Au                  : Basic radial grid will be enhanced according to radial_multiplier =   1, to contain    73 grid points.
 
  Finished reading input file 'control.in'.
 
------------------------------------------------------------


------------------------------------------------------------
          Reading geometry description geometry.in.
------------------------------------------------------------
  | The smallest distance between any two atoms is         2.38950272 AA.
  | The first atom of this pair is atom number                    187 .
  | The second atom of this pair is atom number                   189 .
  | Wigner-Seitz cell of the first atom image           0     0     0 .
  | (The Wigner-Seitz cell of the second atom is 0 0 0  by definition.)

  Symmetry information by spglib:
  | Precision set to  0.1E-04
  | Number of Operations  : 128
  | Space group           : 6
  | International         : Pm S atom 1
  | Schoenflies           : Cs^1
  Input structure read successfully.
  The structure contains      192 atoms,  and a total of       4736.000 electrons.

  Input geometry:
  | Unit cell:
  |       25.15389808       -0.00209232        0.00000000
  |      -12.57861304       21.78262040        0.00000000
  |        0.00000000        0.00000000      103.10805205
  | Atomic structure:
  |       Atom                x [A]            y [A]            z [A]
  |    1: Species Mo           11.78924734       21.32685178       51.55402596
  |    2: Species S             0.78603118        0.45369686       53.10805205
  |    3: Species S             0.78603117        0.45369686       50.00000000
  |    4: Species Mo           22.79553375        2.26705893       51.55402596
  |    5: Species S            -0.78629545        3.17652441       53.10805205
  |    6: Species S            -0.78629546        3.17652441       50.00000000
  |    7: Species Mo           21.22320712        4.98988648       51.55402596
  |    8: Species S            -2.35862208        5.89935196       53.10805205
  |    9: Species S            -2.35862209        5.89935196       50.00000000
  |   10: Species Mo           19.65088049        7.71271403       51.55402596
  |   11: Species S            -3.93094871        8.62217951       53.10805205
  |   12: Species S            -3.93094872        8.62217951       50.00000000
  |   13: Species Mo           18.07855386       10.43554158       51.55402596
  |   14: Species S            -5.50327534       11.34500706       53.10805205
  |   15: Species S            -5.50327535       11.34500706       50.00000000
  |   16: Species Mo           16.50622723       13.15836913       51.55402596
  |   17: Species S            -7.07560197       14.06783461       53.10805205
  |   18: Species S            -7.07560198       14.06783461       50.00000000
  |   19: Species Mo           14.93390060       15.88119668       51.55402596
  |   20: Species S            -8.64792860       16.79066216       53.10805205
  |   21: Species S            -8.64792861       16.79066216       50.00000000
  |   22: Species Mo           13.36157397       18.60402423       51.55402596
  |   23: Species S           -10.22025523       19.51348971       53.10805205
  |   24: Species S           -10.22025524       19.51348971       50.00000000
  |   25: Species Mo          -10.22041348       21.32868256       51.55402596
  |   26: Species S             3.93026844        0.45343532       53.10805205
  |   27: Species S             3.93026843        0.45343532       50.00000000
  |   28: Species Mo            0.78587293        2.26888971       51.55402596
  |   29: Species S             2.35794181        3.17626287       53.10805205
  |   30: Species S             2.35794180        3.17626287       50.00000000
  |   31: Species Mo           -0.78645370        4.99171726       51.55402596
  |   32: Species S             0.78561518        5.89909042       53.10805205
  |   33: Species S             0.78561517        5.89909042       50.00000000
  |   34: Species Mo           -2.35878033        7.71454481       51.55402596
  |   35: Species S            -0.78671145        8.62191797       53.10805205
  |   36: Species S            -0.78671146        8.62191797       50.00000000
  |   37: Species Mo           -3.93110696       10.43737236       51.55402596
  |   38: Species S            -2.35903808       11.34474552       53.10805205
  |   39: Species S            -2.35903809       11.34474552       50.00000000
  |   40: Species Mo           -5.50343359       13.16019991       51.55402596
  |   41: Species S            -3.93136471       14.06757307       53.10805205
  |   42: Species S            -3.93136472       14.06757307       50.00000000
  |   43: Species Mo           -7.07576022       15.88302746       51.55402596
  |   44: Species S            -5.50369134       16.79040062       53.10805205
  |   45: Species S            -5.50369135       16.79040062       50.00000000
  |   46: Species Mo           -8.64808685       18.60585501       51.55402596
  |   47: Species S            -7.07601797       19.51322817       53.10805205
  |   48: Species S            -7.07601798       19.51322817       50.00000000
  |   49: Species Mo           -7.07617622       21.32842102       51.55402596
  |   50: Species S             7.07450570        0.45317378       53.10805205
  |   51: Species S             7.07450569        0.45317378       50.00000000
  |   52: Species Mo            3.93011019        2.26862817       51.55402596
  |   53: Species S             5.50217907        3.17600133       53.10805205
  |   54: Species S             5.50217906        3.17600133       50.00000000
  |   55: Species Mo            2.35778356        4.99145572       51.55402596
  |   56: Species S             3.92985244        5.89882888       53.10805205
  |   57: Species S             3.92985243        5.89882888       50.00000000
  |   58: Species Mo            0.78545693        7.71428327       51.55402596
  |   59: Species S             2.35752581        8.62165643       53.10805205
  |   60: Species S             2.35752580        8.62165643       50.00000000
  |   61: Species Mo           -0.78686970       10.43711082       51.55402596
  |   62: Species S             0.78519918       11.34448398       53.10805205
  |   63: Species S             0.78519917       11.34448398       50.00000000
  |   64: Species Mo           -2.35919633       13.15993837       51.55402596
  |   65: Species S            -0.78712745       14.06731153       53.10805205
  |   66: Species S            -0.78712746       14.06731153       50.00000000
  |   67: Species Mo           -3.93152296       15.88276592       51.55402596
  |   68: Species S            -2.35945408       16.79013908       53.10805205
  |   69: Species S            -2.35945409       16.79013908       50.00000000
  |   70: Species Mo           -5.50384959       18.60559347       51.55402596
  |   71: Species S            -3.93178071       19.51296663       53.10805205
  |   72: Species S            -3.93178072       19.51296663       50.00000000
  |   73: Species Mo           -3.93193896       21.32815948       51.55402596
  |   74: Species S            10.21874296        0.45291224       53.10805205
  |   75: Species S            10.21874295        0.45291224       50.00000000
  |   76: Species Mo            7.07434745        2.26836663       51.55402596
  |   77: Species S             8.64641633        3.17573979       53.10805205
  |   78: Species S             8.64641632        3.17573979       50.00000000
  |   79: Species Mo            5.50202082        4.99119418       51.55402596
  |   80: Species S             7.07408970        5.89856734       53.10805205
  |   81: Species S             7.07408969        5.89856734       50.00000000
  |   82: Species Mo            3.92969419        7.71402173       51.55402596
  |   83: Species S             5.50176307        8.62139489       53.10805205
  |   84: Species S             5.50176306        8.62139489       50.00000000
  |   85: Species Mo            2.35736756       10.43684928       51.55402596
  |   86: Species S             3.92943644       11.34422244       53.10805205
  |   87: Species S             3.92943643       11.34422244       50.00000000
  |   88: Species Mo            0.78504093       13.15967683       51.55402596
  |   89: Species S             2.35710981       14.06704999       53.10805205
  |   90: Species S             2.35710980       14.06704999       50.00000000
  |   91: Species Mo           -0.78728570       15.88250438       51.55402596
  |   92: Species S             0.78478318       16.78987754       53.10805205
  |   93: Species S             0.78478317       16.78987754       50.00000000
  |   94: Species Mo           -2.35961233       18.60533193       51.55402596
  |   95: Species S            -0.78754345       19.51270509       53.10805205
  |   96: Species S            -0.78754346       19.51270509       50.00000000
  |   97: Species Mo           -0.78770170       21.32789794       51.55402596
  |   98: Species S            13.36298022        0.45265070       53.10805205
  |   99: Species S            13.36298021        0.45265070       50.00000000
  |  100: Species Mo           10.21858471        2.26810509       51.55402596
  |  101: Species S            11.79065359        3.17547825       53.10805205
  |  102: Species S            11.79065358        3.17547825       50.00000000
  |  103: Species Mo            8.64625808        4.99093264       51.55402596
  |  104: Species S            10.21832696        5.89830580       53.10805205
  |  105: Species S            10.21832695        5.89830580       50.00000000
  |  106: Species Mo            7.07393145        7.71376019       51.55402596
  |  107: Species S             8.64600033        8.62113335       53.10805205
  |  108: Species S             8.64600032        8.62113335       50.00000000
  |  109: Species Mo            5.50160482       10.43658774       51.55402596
  |  110: Species S             7.07367370       11.34396090       53.10805205
  |  111: Species S             7.07367369       11.34396090       50.00000000
  |  112: Species Mo            3.92927819       13.15941529       51.55402596
  |  113: Species S             5.50134707       14.06678845       53.10805205
  |  114: Species S             5.50134706       14.06678845       50.00000000
  |  115: Species Mo            2.35695156       15.88224284       51.55402596
  |  116: Species S             3.92902044       16.78961600       53.10805205
  |  117: Species S             3.92902043       16.78961600       50.00000000
  |  118: Species Mo            0.78462493       18.60507039       51.55402596
  |  119: Species S             2.35669381       19.51244355       53.10805205
  |  120: Species S             2.35669380       19.51244355       50.00000000
  |  121: Species Mo            2.35653556       21.32763640       51.55402596
  |  122: Species S            16.50721748        0.45238916       53.10805205
  |  123: Species S            16.50721747        0.45238916       50.00000000
  |  124: Species Mo           13.36282197        2.26784355       51.55402596
  |  125: Species S            14.93489085        3.17521671       53.10805205
  |  126: Species S            14.93489084        3.17521671       50.00000000
  |  127: Species Mo           11.79049534        4.99067110       51.55402596
  |  128: Species S            13.36256422        5.89804426       53.10805205
  |  129: Species S            13.36256421        5.89804426       50.00000000
  |  130: Species Mo           10.21816871        7.71349865       51.55402596
  |  131: Species S            11.79023759        8.62087181       53.10805205
  |  132: Species S            11.79023758        8.62087181       50.00000000
  |  133: Species Mo            8.64584208       10.43632620       51.55402596
  |  134: Species S            10.21791096       11.34369936       53.10805205
  |  135: Species S            10.21791095       11.34369936       50.00000000
  |  136: Species Mo            7.07351545       13.15915375       51.55402596
  |  137: Species S             8.64558433       14.06652691       53.10805205
  |  138: Species S             8.64558432       14.06652691       50.00000000
  |  139: Species Mo            5.50118882       15.88198130       51.55402596
  |  140: Species S             7.07325770       16.78935446       53.10805205
  |  141: Species S             7.07325769       16.78935446       50.00000000
  |  142: Species Mo            3.92886219       18.60480885       51.55402596
  |  143: Species S             5.50093107       19.51218201       53.10805205
  |  144: Species S             5.50093106       19.51218201       50.00000000
  |  145: Species Mo            5.50077282       21.32737486       51.55402596
  |  146: Species S            19.65145474        0.45212762       53.10805205
  |  147: Species S            19.65145473        0.45212762       50.00000000
  |  148: Species Mo           16.50705923        2.26758201       51.55402596
  |  149: Species S            18.07912811        3.17495517       53.10805205
  |  150: Species S            18.07912810        3.17495517       50.00000000
  |  151: Species Mo           14.93473260        4.99040956       51.55402596
  |  152: Species S            16.50680148        5.89778272       53.10805205
  |  153: Species S            16.50680147        5.89778272       50.00000000
  |  154: Species Mo           13.36240597        7.71323711       51.55402596
  |  155: Species S            14.93447485        8.62061027       53.10805205
  |  156: Species S            14.93447484        8.62061027       50.00000000
  |  157: Species Mo           11.79007934       10.43606466       51.55402596
  |  158: Species S            13.36214822       11.34343782       53.10805205
  |  159: Species S            13.36214821       11.34343782       50.00000000
  |  160: Species Mo           10.21775271       13.15889221       51.55402596
  |  161: Species S            11.78982159       14.06626537       53.10805205
  |  162: Species S            11.78982158       14.06626537       50.00000000
  |  163: Species Mo            8.64542608       15.88171976       51.55402596
  |  164: Species S            10.21749496       16.78909292       53.10805205
  |  165: Species S            10.21749495       16.78909292       50.00000000
  |  166: Species Mo            7.07309945       18.60454731       51.55402596
  |  167: Species S             8.64516833       19.51192047       53.10805205
  |  168: Species S             8.64516832       19.51192047       50.00000000
  |  169: Species Mo            8.64501008       21.32711332       51.55402596
  |  170: Species S            22.79569200        0.45186608       53.10805205
  |  171: Species S            22.79569199        0.45186608       50.00000000
  |  172: Species Mo           19.65129649        2.26732047       51.55402596
  |  173: Species S            21.22336537        3.17469363       53.10805205
  |  174: Species S            21.22336536        3.17469363       50.00000000
  |  175: Species Mo           18.07896986        4.99014802       51.55402596
  |  176: Species S            19.65103874        5.89752118       53.10805205
  |  177: Species S            19.65103873        5.89752118       50.00000000
  |  178: Species Mo           16.50664323        7.71297557       51.55402596
  |  179: Species S            18.07871211        8.62034873       53.10805205
  |  180: Species S            18.07871210        8.62034873       50.00000000
  |  181: Species Mo           14.93431660       10.43580312       51.55402596
  |  182: Species S            16.50638548       11.34317628       53.10805205
  |  183: Species S            16.50638547       11.34317628       50.00000000
  |  184: Species Mo           13.36198997       13.15863067       51.55402596
  |  185: Species S            14.93405885       14.06600383       53.10805205
  |  186: Species S            14.93405884       14.06600383       50.00000000
  |  187: Species Mo           11.78966334       15.88145822       51.55402596
  |  188: Species S            13.36173222       16.78883138       53.10805205
  |  189: Species S            13.36173221       16.78883138       50.00000000
  |  190: Species Mo           10.21733671       18.60428577       51.55402596
  |  191: Species S            11.78940559       19.51165893       53.10805205
  |  192: Species S            11.78940558       19.51165893       50.00000000

  Lattice parameters for 3D lattice (in Angstroms) :    25.153898   25.153609  103.108052
  Angle(s) between unit vectors (in degrees)       :    90.000000   90.000000  120.009523


  Quantities derived from the lattice vectors:
  | Reciprocal lattice vector 1:  0.249802  0.144251  0.000000
  | Reciprocal lattice vector 2:  0.000024  0.288463  0.000000
  | Reciprocal lattice vector 3:  0.000000  0.000000  0.060938
  | Unit cell volume                               :   0.564920E+05  A^3

  Fractional coordinates:
                         L1                L2                L3
       atom_frac         0.95833376        0.97916855        0.50000000  Mo
       atom_frac         0.04166645        0.02083239        0.51507182  S
       atom_frac         0.04166645        0.02083239        0.48492818  S
       atom_frac         0.95833376        0.10416855        0.50000000  Mo
       atom_frac         0.04166645        0.14583239        0.51507182  S
       atom_frac         0.04166645        0.14583239        0.48492818  S
       atom_frac         0.95833376        0.22916855        0.50000000  Mo
       atom_frac         0.04166645        0.27083239        0.51507182  S
       atom_frac         0.04166645        0.27083239        0.48492818  S
       atom_frac         0.95833376        0.35416855        0.50000000  Mo
       atom_frac         0.04166645        0.39583239        0.51507182  S
       atom_frac         0.04166645        0.39583239        0.48492818  S
       atom_frac         0.95833376        0.47916855        0.50000000  Mo
       atom_frac         0.04166645        0.52083239        0.51507182  S
       atom_frac         0.04166645        0.52083239        0.48492818  S
       atom_frac         0.95833376        0.60416855        0.50000000  Mo
       atom_frac         0.04166645        0.64583239        0.51507182  S
       atom_frac         0.04166645        0.64583239        0.48492818  S
       atom_frac         0.95833376        0.72916855        0.50000000  Mo
[...]
  |    67    0.000001   -0.000000    0.000000    0.000001   -0.000000
  |    68   -0.000000   -0.000000   -0.000000    0.000000    0.000000
  |    69   -0.000000   -0.000000   -0.000000    0.000000    0.000000
  |    70    0.000001   -0.000000    0.000000    0.000001   -0.000000
  |    71   -0.000000   -0.000000   -0.000000    0.000000    0.000000
  |    72   -0.000000   -0.000000   -0.000000    0.000000    0.000000
  |    73    0.000001   -0.000000    0.000000    0.000001   -0.000000
  |    74   -0.000000   -0.000000   -0.000000    0.000000    0.000000
  |    75   -0.000000   -0.000000   -0.000000    0.000000    0.000000
  |    76    0.000001   -0.000000    0.000000    0.000001   -0.000000
  |    77   -0.000000   -0.000000   -0.000000    0.000000    0.000000
  |    78   -0.000000   -0.000000   -0.000000    0.000000    0.000000
  |    79    0.000001   -0.000000    0.000000    0.000001   -0.000000
  |    80   -0.000000   -0.000000   -0.000000    0.000000    0.000000
  |    81   -0.000000   -0.000000   -0.000000    0.000000    0.000000
  |    82    0.000001   -0.000000    0.000000    0.000001   -0.000000
  |    83   -0.000000   -0.000000   -0.000000    0.000000    0.000000
  |    84   -0.000000   -0.000000   -0.000000    0.000000    0.000000
  |    85    0.000001   -0.000000    0.000000    0.000001   -0.000000
  |    86   -0.000000   -0.000000   -0.000000    0.000000    0.000000
  |    87   -0.000000   -0.000000   -0.000000    0.000000    0.000000
  |    88    0.000001   -0.000000    0.000000    0.000001   -0.000000
  |    89   -0.000000   -0.000000   -0.000000    0.000000    0.000000
  |    90   -0.000000   -0.000000   -0.000000    0.000000    0.000000
  |    91    0.000001   -0.000000    0.000000    0.000001   -0.000000
  |    92   -0.000000   -0.000000   -0.000000    0.000000    0.000000
  |    93   -0.000000   -0.000000   -0.000000    0.000000    0.000000
  |    94    0.000001   -0.000000    0.000000    0.000001   -0.000000
  |    95   -0.000000   -0.000000   -0.000000    0.000000    0.000000
  |    96   -0.000000   -0.000000   -0.000000    0.000000    0.000000
  |    97    0.000001   -0.000000    0.000000    0.000001   -0.000000
  |    98   -0.000000   -0.000000   -0.000000    0.000000    0.000000
  |    99   -0.000000   -0.000000   -0.000000    0.000000    0.000000
  |   100    0.000001   -0.000000    0.000000    0.000001   -0.000000
  |   101   -0.000000   -0.000000   -0.000000    0.000000    0.000000
  |   102   -0.000000   -0.000000   -0.000000    0.000000    0.000000
  |   103    0.000001   -0.000000    0.000000    0.000001   -0.000000
  |   104   -0.000000   -0.000000   -0.000000    0.000000    0.000000
  |   105   -0.000000   -0.000000   -0.000000    0.000000    0.000000
  |   106    0.000001   -0.000000    0.000000    0.000001   -0.000000
  |   107   -0.000000   -0.000000   -0.000000    0.000000    0.000000
  |   108   -0.000000   -0.000000   -0.000000    0.000000    0.000000
  |   109    0.000001   -0.000000    0.000000    0.000001   -0.000000
  |   110   -0.000000   -0.000000   -0.000000    0.000000    0.000000
  |   111   -0.000000   -0.000000   -0.000000    0.000000    0.000000
  |   112    0.000001   -0.000000    0.000000    0.000001   -0.000000
  |   113   -0.000000   -0.000000   -0.000000    0.000000    0.000000
  |   114   -0.000000   -0.000000   -0.000000    0.000000    0.000000
  |   115    0.000001   -0.000000    0.000000    0.000001   -0.000000
  |   116   -0.000000   -0.000000   -0.000000    0.000000    0.000000
  |   117   -0.000000   -0.000000   -0.000000    0.000000    0.000000
  |   118    0.000001   -0.000000    0.000000    0.000001   -0.000000
  |   119   -0.000000   -0.000000   -0.000000    0.000000    0.000000
  |   120   -0.000000   -0.000000   -0.000000    0.000000    0.000000
  |   121    0.000001   -0.000000    0.000000    0.000001   -0.000000
  |   122   -0.000000   -0.000000   -0.000000    0.000000    0.000000
  |   123   -0.000000   -0.000000   -0.000000    0.000000    0.000000
  |   124    0.000001   -0.000000    0.000000    0.000001   -0.000000
  |   125   -0.000000   -0.000000   -0.000000    0.000000    0.000000
  |   126   -0.000000   -0.000000   -0.000000    0.000000    0.000000
  |   127    0.000001   -0.000000    0.000000    0.000001   -0.000000
  |   128   -0.000000   -0.000000   -0.000000    0.000000    0.000000
  |   129   -0.000000   -0.000000   -0.000000    0.000000    0.000000
  |   130    0.000001   -0.000000    0.000000    0.000001   -0.000000
  |   131   -0.000000   -0.000000   -0.000000    0.000000    0.000000
  |   132   -0.000000   -0.000000   -0.000000    0.000000    0.000000
  |   133    0.000001   -0.000000    0.000000    0.000001   -0.000000
  |   134   -0.000000   -0.000000   -0.000000    0.000000    0.000000
  |   135   -0.000000   -0.000000   -0.000000    0.000000    0.000000
  |   136    0.000001   -0.000000    0.000000    0.000001   -0.000000
  |   137   -0.000000   -0.000000   -0.000000    0.000000    0.000000
  |   138   -0.000000   -0.000000   -0.000000    0.000000    0.000000
  |   139    0.000001   -0.000000    0.000000    0.000001   -0.000000
  |   140   -0.000000   -0.000000   -0.000000    0.000000    0.000000
  |   141   -0.000000   -0.000000   -0.000000    0.000000    0.000000
  |   142    0.000001   -0.000000    0.000000    0.000001   -0.000000
  |   143   -0.000000   -0.000000   -0.000000    0.000000    0.000000
  |   144   -0.000000   -0.000000   -0.000000    0.000000    0.000000
  |   145    0.000001   -0.000000    0.000000    0.000001   -0.000000
  |   146   -0.000000   -0.000000   -0.000000    0.000000    0.000000
  |   147   -0.000000   -0.000000   -0.000000    0.000000    0.000000
  |   148    0.000001   -0.000000    0.000000    0.000001   -0.000000
  |   149   -0.000000   -0.000000   -0.000000    0.000000    0.000000
  |   150   -0.000000   -0.000000   -0.000000    0.000000    0.000000
  |   151    0.000001   -0.000000    0.000000    0.000001   -0.000000
  |   152   -0.000000   -0.000000   -0.000000    0.000000    0.000000
  |   153   -0.000000   -0.000000   -0.000000    0.000000    0.000000
  |   154    0.000001   -0.000000    0.000000    0.000001   -0.000000
  |   155   -0.000000   -0.000000   -0.000000    0.000000    0.000000
  |   156   -0.000000   -0.000000   -0.000000    0.000000    0.000000
  |   157    0.000001   -0.000000    0.000000    0.000001   -0.000000
  |   158   -0.000000   -0.000000   -0.000000    0.000000    0.000000
  |   159   -0.000000   -0.000000   -0.000000    0.000000    0.000000
  |   160    0.000001   -0.000000    0.000000    0.000001   -0.000000
  |   161   -0.000000   -0.000000   -0.000000    0.000000    0.000000
  |   162   -0.000000   -0.000000   -0.000000    0.000000    0.000000
  |   163    0.000001   -0.000000    0.000000    0.000001   -0.000000
  |   164   -0.000000   -0.000000   -0.000000    0.000000    0.000000
  |   165   -0.000000   -0.000000   -0.000000    0.000000    0.000000
  |   166    0.000001   -0.000000    0.000000    0.000001   -0.000000
  |   167   -0.000000   -0.000000   -0.000000    0.000000    0.000000
  |   168   -0.000000   -0.000000   -0.000000    0.000000    0.000000
  |   169    0.000001   -0.000000    0.000000    0.000001   -0.000000
  |   170   -0.000000   -0.000000   -0.000000    0.000000    0.000000
  |   171   -0.000000   -0.000000   -0.000000    0.000000    0.000000
  |   172    0.000001   -0.000000    0.000000    0.000001   -0.000000
  |   173   -0.000000   -0.000000   -0.000000    0.000000    0.000000
  |   174   -0.000000   -0.000000   -0.000000    0.000000    0.000000
  |   175    0.000001   -0.000000    0.000000    0.000001   -0.000000
  |   176   -0.000000   -0.000000   -0.000000    0.000000    0.000000
  |   177   -0.000000   -0.000000   -0.000000    0.000000    0.000000
  |   178    0.000001   -0.000000    0.000000    0.000001   -0.000000
  |   179   -0.000000   -0.000000   -0.000000    0.000000    0.000000
  |   180   -0.000000   -0.000000   -0.000000    0.000000    0.000000
  |   181    0.000001   -0.000000    0.000000    0.000001   -0.000000
  |   182   -0.000000   -0.000000   -0.000000    0.000000    0.000000
  |   183   -0.000000   -0.000000   -0.000000    0.000000    0.000000
  |   184    0.000001   -0.000000    0.000000    0.000001   -0.000000
  |   185   -0.000000   -0.000000   -0.000000    0.000000    0.000000
  |   186   -0.000000   -0.000000   -0.000000    0.000000    0.000000
  |   187    0.000001   -0.000000    0.000000    0.000001   -0.000000
  |   188   -0.000000   -0.000000   -0.000000    0.000000    0.000000
  |   189   -0.000000   -0.000000   -0.000000    0.000000    0.000000
  |   190    0.000001   -0.000000    0.000000    0.000001   -0.000000
  |   191   -0.000000   -0.000000   -0.000000    0.000000    0.000000
  |   192   -0.000000   -0.000000   -0.000000    0.000000    0.000000
  |
  | Total    0.000000
 
  Calculating angular momentum projected density of states ...
  | Chemical potential is  -5.711646 eV.
  | writing  spin_up projected DOS (shifted by the chemical potential) for species Se to file Se_l_proj_dos_tetrahedron_spin_up.dat.
  | writing  spin_up projected DOS (raw data) for species Se to file Se_l_proj_dos_tetrahedron_spin_up_raw.dat.
  | writing  spin_dn projected DOS (shifted by the chemical potential) for species Se to file Se_l_proj_dos_tetrahedron_spin_dn.dat.
  | writing  spin_dn projected DOS (raw data) for species Se to file Se_l_proj_dos_tetrahedron_spin_dn_raw.dat.
  | writing  spin_up projected DOS (shifted by the chemical potential) for species S to file S_l_proj_dos_tetrahedron_spin_up.dat.
  | writing  spin_up projected DOS (raw data) for species S to file S_l_proj_dos_tetrahedron_spin_up_raw.dat.
  | writing  spin_dn projected DOS (shifted by the chemical potential) for species S to file S_l_proj_dos_tetrahedron_spin_dn.dat.
  | writing  spin_dn projected DOS (raw data) for species S to file S_l_proj_dos_tetrahedron_spin_dn_raw.dat.
  | writing  spin_up projected DOS (shifted by the chemical potential) for species Mo to file Mo_l_proj_dos_tetrahedron_spin_up.dat.
  | writing  spin_up projected DOS (raw data) for species Mo to file Mo_l_proj_dos_tetrahedron_spin_up_raw.dat.
  | writing  spin_dn projected DOS (shifted by the chemical potential) for species Mo to file Mo_l_proj_dos_tetrahedron_spin_dn.dat.
  | writing  spin_dn projected DOS (raw data) for species Mo to file Mo_l_proj_dos_tetrahedron_spin_dn_raw.dat.
  | writing  spin_up projected DOS (shifted by the chemical potential) for species W to file W_l_proj_dos_tetrahedron_spin_up.dat.
  | writing  spin_up projected DOS (raw data) for species W to file W_l_proj_dos_tetrahedron_spin_up_raw.dat.
  | writing  spin_dn projected DOS (shifted by the chemical potential) for species W to file W_l_proj_dos_tetrahedron_spin_dn.dat.
  | writing  spin_dn projected DOS (raw data) for species W to file W_l_proj_dos_tetrahedron_spin_dn_raw.dat.
  | writing  spin_up projected DOS (shifted by the chemical potential) for species Au to file Au_l_proj_dos_tetrahedron_spin_up.dat.
  | writing  spin_up projected DOS (raw data) for species Au to file Au_l_proj_dos_tetrahedron_spin_up_raw.dat.
  | writing  spin_dn projected DOS (shifted by the chemical potential) for species Au to file Au_l_proj_dos_tetrahedron_spin_dn.dat.
  | writing  spin_dn projected DOS (raw data) for species Au to file Au_l_proj_dos_tetrahedron_spin_dn_raw.dat.

  Mulliken analysis                                       :  max(cpu_time)    wall_clock(cpu1)
  | Time for Mulliken analysis                            :          6.255               6.527
  | Total time for Mulliken analysis                      :          6.255               6.527
------------------------------------------------------------

------------------------------------------------------------------------------
  Final output of selected total energy values:

  The following output summarizes some interesting total energy values
  at the end of a run (AFTER all relaxation, molecular dynamics, etc.).

  | Total energy of the DFT / Hartree-Fock s.c.f. calculation      :       -8512007.224821031 eV
  | Final zero-broadening corrected energy (caution - metals only) :       -8512007.224821031 eV
  | For reference only, the value of 1 Hartree used in FHI-aims is :             27.211384500 eV
  | For reference only, the overall average (free atom contribution
  | + realspace contribution) of the electrostatic potential after
  | s.c.f. convergence is                                          :             -1.101083071 eV

  Before relying on these values, please be sure to understand exactly which
  total energy value is referred to by a given number. Different objects may
  all carry the same name 'total energy'. Definitions:

  Total energy of the DFT / Hartree-Fock s.c.f. calculation:
  | Note that this energy does not include ANY quantities calculated after the
  | s.c.f. cycle, in particular not ANY RPA, MP2, etc. many-body perturbation terms.

  Final zero-broadening corrected energy:
  | For metallic systems only, a broadening of the occupation numbers at the Fermi
  | level can be extrapolated back to zero broadening by an electron-gas inspired
  | formula. For all systems that are not real metals, this value can be
  | meaningless and should be avoided.

------------------------------------------------------------------------------
  Methods described in the following list of references were used in this FHI-aims run.
  If you publish the results, please make sure to cite these reference if they apply.
  FHI-aims is an academic code, and for our developers (often, Ph.D. students
  and postdocs), scientific credit in the community is essential.
  Thank you for helping us!

  For any use of FHI-aims, please cite:

    Volker Blum, Ralf Gehrke, Felix Hanke, Paula Havu, Ville Havu,
    Xinguo Ren, Karsten Reuter, and Matthias Scheffler
    'Ab initio molecular simulations with numeric atom-centered orbitals'
    Computer Physics Communications 180, 2175-2196 (2009)
    http://doi.org/10.1016/j.cpc.2009.06.022


  For Hartree-Fock, hybrid functionals, or many-body perturbation theory used in your run, please cite:

    Xinguo Ren, Patrick Rinke, Volker Blum, Juergen Wieferink, Alex Tkatchenko,
    Andrea Sanfilippo, Karsten Reuter, and Matthias Scheffler,
    'Resolution-of-identity approach to Hartree-Fock, hybrid density functionals,
    RPA, MP2, and GW with numeric atom-centered orbital basis functions'
    New Journal of Physics 14, 053020 (2012).
    http://doi.org/10.1088/1367-2630/14/5/053020


  The provided symmetry information was generated with SPGlib:

    Atsushi Togo, Yusuke Seto, Dimitar Pashov
    SPGlib 1.7.3 obtained from http://spglib.sourceforge.net
    Copyright (C) 2008 Atsushi Togo


  The ELSI infrastructure was used in your run to solve the Kohn-Sham electronic structure.
  Please check out http://elsi-interchange.org to learn more.
  If scalability is important for your project, please acknowledge ELSI by citing:

    V. W-z. Yu, F. Corsetti, A. Garcia, W. P. Huhn, M. Jacquelin, W. Jia,
    B. Lange, L. Lin, J. Lu, W. Mi, A. Seifitokaldani, A. Vazquez-Mayagoitia,
    C. Yang, H. Yang, and V. Blum
    'ELSI: A unified software interface for Kohn-Sham electronic structure solvers'
    Computer Physics Communications 222, 267-285 (2018).
    http://doi.org/10.1016/j.cpc.2017.09.007


  For the real-space grid partitioning and parallelization used in this calculation, please cite:

    Ville Havu, Volker Blum, Paula Havu, and Matthias Scheffler,
    'Efficient O(N) integration for all-electron electronic structure calculation'
    'using numerically tabulated basis functions'
    Journal of Computational Physics 228, 8367-8379 (2009).
    http://doi.org/10.1016/j.jcp.2009.08.008


  The high-level electronic structure method used in your calculation
  employed our efficient localized resolution of identity for the Coulomb operator.
  Some calculations, especially large-scale hybrid density functional theory,
  are only possible thanks to this development. For this feature, please cite:

    Arvid Ihrig, Juergen Wieferink, Igor Ying Zhang, Matti Ropo, Xinguo Ren,
    Patrick Rinke, Matthias Scheffler, and Volker Blum,
    'Accurate localized resolution of identity approach for linear-scaling
    hybrid density functionals and for many-body perturbation theory'
    New Journal of Physics 117, 093020 (2015).
    http://doi.org/10.1088/1367-2630/17/9/093020

  Of course, there are many other important community references, e.g., those cited in the
  above references. Our list is limited to references that describe implementations in the
  FHI-aims code. The reason is purely practical (length of this list) - please credit others as well.

 * A warning was issued further up regarding the accuracy of onsite integrals.
   An integral with a negative eigenvalue was among the flagged integrals.
   In most standard situations, this warning is probably harmless.
   If needed, this can be verified by adjusting the radial_multiplier flag.

------------------------------------------------------------
          Leaving FHI-aims.
          Date     :  20220818, Time     :  215606.723

          Computational steps:
          | Number of self-consistency cycles          :           23
          | Number of SCF (re)initializations          :            1

          Detailed time accounting                     :  max(cpu_time)    wall_clock(cpu1)
          | Total time                                  :     3694.677 s        3697.915 s
          | Preparation time                            :        1.737 s           1.968 s
          | Boundary condition initalization            :        1.646 s           1.647 s
          | Grid partitioning                           :        8.315 s           8.323 s
          | Preloading free-atom quantities on grid     :        4.597 s           4.631 s
          | Free-atom superposition energy              :        0.162 s           0.165 s
          | Total time for integrations                 :       57.124 s          57.191 s
          | Product basis setup: Total time             :      170.683 s         170.816 s
          | Total time evaluating exchange matrix       :     2444.460 s        2444.879 s
          | Total time for solution of K.-S. equations  :      755.827 s         755.610 s
          | Total time for density update               :      150.346 s         149.907 s
          | Total time for mixing                       :        0.276 s           0.269 s
          | Total time for Hartree multipole update     :        0.778 s           0.780 s
          | Total time for Hartree multipole sum        :       81.006 s          81.017 s
          | Total time for total energy evaluation      :        0.206 s           0.174 s
          | Total time for scaled ZORA corrections      :        0.000 s           0.000 s
          | Total time for vdW correction               :       11.695 s          11.714 s
          | Total time for Mulliken analysis            :        6.255 s           6.527 s

          Partial memory accounting:
          | Residual value for overall tracked memory usage across tasks:     0.000000 MB (should be 0.000000 MB)
          | Peak values for overall tracked memory usage:
          |   Minimum:      443.810 MB (on task 263 after allocating tmp2_aux)
          |   Maximum:      608.661 MB (on task 176 after allocating tmp2_aux)
          |   Average:      520.899 MB
          | Largest tracked array allocation:
          |   Minimum:      140.625 MB (ovlp3fn for atom on task   0)
          |   Maximum:      256.454 MB (ovlp3fn for atom on task  68)
          |   Average:      188.530 MB
          Note:  These values currently only include a subset of arrays which are explicitly tracked.
          The "true" memory usage will be greater.

          Have a nice day.
------------------------------------------------------------
