------------------------------------------------------------
          Invoking FHI-aims ...

          When using FHI-aims, please cite the following reference:

            Volker Blum, Ralf Gehrke, Felix Hanke, Paula Havu,
            Ville Havu, Xinguo Ren, Karsten Reuter, and Matthias Scheffler,
            'Ab Initio Molecular Simulations with Numeric Atom-Centered Orbitals',
            Computer Physics Communications 180, 2175-2196 (2009)

          In addition, many other developments in FHI-aims are likely important for
          your particular application. A partial list of references is given at the end of
          this file. Thank you for giving credit to the authors of these developments.

          For any questions about FHI-aims, please visit our slack channel at

            https://fhi-aims.slack.com

          and our main development and support site at

            https://aims-git.rz-berlin.mpg.de .

          The latter site, in particular, has a wiki to collect information, as well
          as an issue tracker to log discussions, suggest improvements, and report issues
          or bugs. https://aims-git.rz-berlin.mpg.de is also the main development site
          of the project and all new and updated code versions can be obtained there.
          Please send an email to aims-coordinators@fhi-berlin.mpg.de and we will add
          you to these sites. They are for you and everyone is welcome there.

------------------------------------------------------------



  Date     :  20220930, Time     :  145608.739
  Time zero on CPU 1             :   0.249781000000000E+00  s.
  Internal wall clock time zero  :           433781768.739  s.

  FHI-aims created a unique identifier for this run for later identification
  aims_uuid : 3248F1C1-0EF9-4D01-A101-7954B0D5CDDC

  Build configuration of the current instance of FHI-aims
  -------------------------------------------------------
  FHI-aims version      : 220117
  Commit number         : 0c0e6afe2
  CMake host system     : Linux-5.3.18-24.99-default
  CMake version         : 3.22.0
  Fortran compiler      : /mpcdf/soft/SLE_15/packages/x86_64/intel_oneapi/2021.4/mpi/2021.4.0/bin/mpiifort (Intel) version 2021.4.0.20210910
  Fortran compiler flags: -O3 -ip -fp-model precise
  C compiler            : /mpcdf/soft/SLE_15/packages/x86_64/intel/2021.4.0/bin/icc (Intel) version 2021.4.0.20210910
  C compiler flags      : -O3 -ip -fp-model precise
  C++ compiler          : /mpcdf/soft/SLE_15/packages/x86_64/intel/2021.4.0/bin/icpc (Intel) version 2021.4.0.20210910
  C++ compiler flags    : -O3 -ip -fp-model precise
  Using MPI
  Using ScaLAPACK
  Using LibXC
  Using i-PI
  Using RLSY
  Linking against: /mpcdf/soft/SLE_15/packages/x86_64/intel_oneapi/2021.4/mkl/latest/lib/intel64/libmkl_intel_lp64.so
                   /mpcdf/soft/SLE_15/packages/x86_64/intel_oneapi/2021.4/mkl/latest/lib/intel64/libmkl_sequential.so
                   /mpcdf/soft/SLE_15/packages/x86_64/intel_oneapi/2021.4/mkl/latest/lib/intel64/libmkl_core.so
                   /mpcdf/soft/SLE_15/packages/x86_64/intel_oneapi/2021.4/mkl/latest/lib/intel64/libmkl_blacs_intelmpi_lp64.so
                   /mpcdf/soft/SLE_15/packages/x86_64/intel_oneapi/2021.4/mkl/latest/lib/intel64/libmkl_scalapack_lp64.so

  Using      288 parallel tasks.
  Task        0 on host ravl1043 reporting.
  Task        1 on host ravl1043 reporting.
  Task        2 on host ravl1043 reporting.
  Task        3 on host ravl1043 reporting.
  Task        4 on host ravl1043 reporting.
  Task        5 on host ravl1043 reporting.
  Task        6 on host ravl1043 reporting.
  Task        7 on host ravl1043 reporting.
  Task        8 on host ravl1043 reporting.
  Task        9 on host ravl1043 reporting.
  Task       10 on host ravl1043 reporting.
  Task       11 on host ravl1043 reporting.
  Task       12 on host ravl1043 reporting.
  Task       13 on host ravl1043 reporting.
  Task       14 on host ravl1043 reporting.
  Task       15 on host ravl1043 reporting.
  Task       16 on host ravl1043 reporting.
  Task       17 on host ravl1043 reporting.
  Task       18 on host ravl1043 reporting.
  Task       19 on host ravl1043 reporting.
  Task       20 on host ravl1043 reporting.
  Task       21 on host ravl1043 reporting.
  Task       22 on host ravl1043 reporting.
  Task       23 on host ravl1043 reporting.
  Task       24 on host ravl1043 reporting.
  Task       25 on host ravl1043 reporting.
  Task       26 on host ravl1043 reporting.
  Task       27 on host ravl1043 reporting.
  Task       28 on host ravl1043 reporting.
  Task       29 on host ravl1043 reporting.
  Task       30 on host ravl1043 reporting.
  Task       31 on host ravl1043 reporting.
  Task       32 on host ravl1043 reporting.
  Task       33 on host ravl1043 reporting.
  Task       34 on host ravl1043 reporting.
  Task       35 on host ravl1043 reporting.
  Task       36 on host ravl1043 reporting.
  Task       37 on host ravl1043 reporting.
  Task       38 on host ravl1043 reporting.
  Task       39 on host ravl1043 reporting.
  Task       40 on host ravl1043 reporting.
  Task       41 on host ravl1043 reporting.
  Task       42 on host ravl1043 reporting.
  Task       43 on host ravl1043 reporting.
  Task       44 on host ravl1043 reporting.
  Task       45 on host ravl1043 reporting.
  Task       46 on host ravl1043 reporting.
  Task       47 on host ravl1043 reporting.
  Task       48 on host ravl1043 reporting.
  Task       49 on host ravl1043 reporting.
  Task       50 on host ravl1043 reporting.
  Task       51 on host ravl1043 reporting.
  Task       52 on host ravl1043 reporting.
  Task       53 on host ravl1043 reporting.
  Task       54 on host ravl1043 reporting.
  Task       55 on host ravl1043 reporting.
  Task       56 on host ravl1043 reporting.
  Task       57 on host ravl1043 reporting.
  Task       58 on host ravl1043 reporting.
  Task       59 on host ravl1043 reporting.
  Task       60 on host ravl1043 reporting.
  Task       61 on host ravl1043 reporting.
  Task       62 on host ravl1043 reporting.
  Task       63 on host ravl1043 reporting.
  Task       64 on host ravl1043 reporting.
  Task       65 on host ravl1043 reporting.
  Task       66 on host ravl1043 reporting.
  Task       67 on host ravl1043 reporting.
  Task       68 on host ravl1043 reporting.
  Task       69 on host ravl1043 reporting.
  Task       70 on host ravl1043 reporting.
  Task       71 on host ravl1043 reporting.
  Task       72 on host ravl1048 reporting.
  Task       73 on host ravl1048 reporting.
  Task       74 on host ravl1048 reporting.
  Task       75 on host ravl1048 reporting.
  Task       76 on host ravl1048 reporting.
  Task       77 on host ravl1048 reporting.
  Task       78 on host ravl1048 reporting.
  Task       79 on host ravl1048 reporting.
  Task       80 on host ravl1048 reporting.
  Task       81 on host ravl1048 reporting.
  Task       82 on host ravl1048 reporting.
  Task       83 on host ravl1048 reporting.
  Task       84 on host ravl1048 reporting.
  Task       85 on host ravl1048 reporting.
  Task       86 on host ravl1048 reporting.
  Task       87 on host ravl1048 reporting.
  Task       88 on host ravl1048 reporting.
  Task       89 on host ravl1048 reporting.
  Task       90 on host ravl1048 reporting.
  Task       91 on host ravl1048 reporting.
  Task       92 on host ravl1048 reporting.
  Task       93 on host ravl1048 reporting.
  Task       94 on host ravl1048 reporting.
  Task       95 on host ravl1048 reporting.
  Task       96 on host ravl1048 reporting.
  Task       97 on host ravl1048 reporting.
  Task       98 on host ravl1048 reporting.
  Task       99 on host ravl1048 reporting.
  Task      100 on host ravl1048 reporting.
  Task      101 on host ravl1048 reporting.
  Task      102 on host ravl1048 reporting.
  Task      103 on host ravl1048 reporting.
  Task      104 on host ravl1048 reporting.
  Task      105 on host ravl1048 reporting.
  Task      106 on host ravl1048 reporting.
  Task      107 on host ravl1048 reporting.
  Task      108 on host ravl1048 reporting.
  Task      109 on host ravl1048 reporting.
  Task      110 on host ravl1048 reporting.
  Task      111 on host ravl1048 reporting.
  Task      112 on host ravl1048 reporting.
  Task      113 on host ravl1048 reporting.
  Task      114 on host ravl1048 reporting.
  Task      115 on host ravl1048 reporting.
  Task      116 on host ravl1048 reporting.
  Task      117 on host ravl1048 reporting.
  Task      118 on host ravl1048 reporting.
  Task      119 on host ravl1048 reporting.
  Task      120 on host ravl1048 reporting.
  Task      121 on host ravl1048 reporting.
  Task      122 on host ravl1048 reporting.
  Task      123 on host ravl1048 reporting.
  Task      124 on host ravl1048 reporting.
  Task      125 on host ravl1048 reporting.
  Task      126 on host ravl1048 reporting.
  Task      127 on host ravl1048 reporting.
  Task      128 on host ravl1048 reporting.
  Task      129 on host ravl1048 reporting.
  Task      130 on host ravl1048 reporting.
  Task      131 on host ravl1048 reporting.
  Task      132 on host ravl1048 reporting.
  Task      133 on host ravl1048 reporting.
  Task      134 on host ravl1048 reporting.
  Task      135 on host ravl1048 reporting.
  Task      136 on host ravl1048 reporting.
  Task      137 on host ravl1048 reporting.
  Task      138 on host ravl1048 reporting.
  Task      139 on host ravl1048 reporting.
  Task      140 on host ravl1048 reporting.
  Task      141 on host ravl1048 reporting.
  Task      142 on host ravl1048 reporting.
  Task      143 on host ravl1048 reporting.
  Task      144 on host ravl1066 reporting.
  Task      145 on host ravl1066 reporting.
  Task      146 on host ravl1066 reporting.
  Task      147 on host ravl1066 reporting.
  Task      148 on host ravl1066 reporting.
  Task      149 on host ravl1066 reporting.
  Task      150 on host ravl1066 reporting.
  Task      151 on host ravl1066 reporting.
  Task      152 on host ravl1066 reporting.
  Task      153 on host ravl1066 reporting.
  Task      154 on host ravl1066 reporting.
  Task      155 on host ravl1066 reporting.
  Task      156 on host ravl1066 reporting.
  Task      157 on host ravl1066 reporting.
  Task      158 on host ravl1066 reporting.
  Task      159 on host ravl1066 reporting.
  Task      160 on host ravl1066 reporting.
  Task      161 on host ravl1066 reporting.
  Task      162 on host ravl1066 reporting.
  Task      163 on host ravl1066 reporting.
  Task      164 on host ravl1066 reporting.
  Task      165 on host ravl1066 reporting.
  Task      166 on host ravl1066 reporting.
  Task      167 on host ravl1066 reporting.
  Task      168 on host ravl1066 reporting.
  Task      169 on host ravl1066 reporting.
  Task      170 on host ravl1066 reporting.
  Task      171 on host ravl1066 reporting.
  Task      172 on host ravl1066 reporting.
  Task      173 on host ravl1066 reporting.
  Task      174 on host ravl1066 reporting.
  Task      175 on host ravl1066 reporting.
  Task      176 on host ravl1066 reporting.
  Task      177 on host ravl1066 reporting.
  Task      178 on host ravl1066 reporting.
  Task      179 on host ravl1066 reporting.
  Task      180 on host ravl1066 reporting.
  Task      181 on host ravl1066 reporting.
  Task      182 on host ravl1066 reporting.
  Task      183 on host ravl1066 reporting.
  Task      184 on host ravl1066 reporting.
  Task      185 on host ravl1066 reporting.
  Task      186 on host ravl1066 reporting.
  Task      187 on host ravl1066 reporting.
  Task      188 on host ravl1066 reporting.
  Task      189 on host ravl1066 reporting.
  Task      190 on host ravl1066 reporting.
  Task      191 on host ravl1066 reporting.
  Task      192 on host ravl1066 reporting.
  Task      193 on host ravl1066 reporting.
  Task      194 on host ravl1066 reporting.
  Task      195 on host ravl1066 reporting.
  Task      196 on host ravl1066 reporting.
  Task      197 on host ravl1066 reporting.
  Task      198 on host ravl1066 reporting.
  Task      199 on host ravl1066 reporting.
  Task      200 on host ravl1066 reporting.
  Task      201 on host ravl1066 reporting.
  Task      202 on host ravl1066 reporting.
  Task      203 on host ravl1066 reporting.
  Task      204 on host ravl1066 reporting.
  Task      205 on host ravl1066 reporting.
  Task      206 on host ravl1066 reporting.
  Task      207 on host ravl1066 reporting.
  Task      208 on host ravl1066 reporting.
  Task      209 on host ravl1066 reporting.
  Task      210 on host ravl1066 reporting.
  Task      211 on host ravl1066 reporting.
  Task      212 on host ravl1066 reporting.
  Task      213 on host ravl1066 reporting.
  Task      214 on host ravl1066 reporting.
  Task      215 on host ravl1066 reporting.
  Task      216 on host ravl1067 reporting.
  Task      217 on host ravl1067 reporting.
  Task      218 on host ravl1067 reporting.
  Task      219 on host ravl1067 reporting.
  Task      220 on host ravl1067 reporting.
  Task      221 on host ravl1067 reporting.
  Task      222 on host ravl1067 reporting.
  Task      223 on host ravl1067 reporting.
  Task      224 on host ravl1067 reporting.
  Task      225 on host ravl1067 reporting.
  Task      226 on host ravl1067 reporting.
  Task      227 on host ravl1067 reporting.
  Task      228 on host ravl1067 reporting.
  Task      229 on host ravl1067 reporting.
  Task      230 on host ravl1067 reporting.
  Task      231 on host ravl1067 reporting.
  Task      232 on host ravl1067 reporting.
  Task      233 on host ravl1067 reporting.
  Task      234 on host ravl1067 reporting.
  Task      235 on host ravl1067 reporting.
  Task      236 on host ravl1067 reporting.
  Task      237 on host ravl1067 reporting.
  Task      238 on host ravl1067 reporting.
  Task      239 on host ravl1067 reporting.
  Task      240 on host ravl1067 reporting.
  Task      241 on host ravl1067 reporting.
  Task      242 on host ravl1067 reporting.
  Task      243 on host ravl1067 reporting.
  Task      244 on host ravl1067 reporting.
  Task      245 on host ravl1067 reporting.
  Task      246 on host ravl1067 reporting.
  Task      247 on host ravl1067 reporting.
  Task      248 on host ravl1067 reporting.
  Task      249 on host ravl1067 reporting.
  Task      250 on host ravl1067 reporting.
  Task      251 on host ravl1067 reporting.
  Task      252 on host ravl1067 reporting.
  Task      253 on host ravl1067 reporting.
  Task      254 on host ravl1067 reporting.
  Task      255 on host ravl1067 reporting.
  Task      256 on host ravl1067 reporting.
  Task      257 on host ravl1067 reporting.
  Task      258 on host ravl1067 reporting.
  Task      259 on host ravl1067 reporting.
  Task      260 on host ravl1067 reporting.
  Task      261 on host ravl1067 reporting.
  Task      262 on host ravl1067 reporting.
  Task      263 on host ravl1067 reporting.
  Task      264 on host ravl1067 reporting.
  Task      265 on host ravl1067 reporting.
  Task      266 on host ravl1067 reporting.
  Task      267 on host ravl1067 reporting.
  Task      268 on host ravl1067 reporting.
  Task      269 on host ravl1067 reporting.
  Task      270 on host ravl1067 reporting.
  Task      271 on host ravl1067 reporting.
  Task      272 on host ravl1067 reporting.
  Task      273 on host ravl1067 reporting.
  Task      274 on host ravl1067 reporting.
  Task      275 on host ravl1067 reporting.
  Task      276 on host ravl1067 reporting.
  Task      277 on host ravl1067 reporting.
  Task      278 on host ravl1067 reporting.
  Task      279 on host ravl1067 reporting.
  Task      280 on host ravl1067 reporting.
  Task      281 on host ravl1067 reporting.
  Task      282 on host ravl1067 reporting.
  Task      283 on host ravl1067 reporting.
  Task      284 on host ravl1067 reporting.
  Task      285 on host ravl1067 reporting.
  Task      286 on host ravl1067 reporting.
  Task      287 on host ravl1067 reporting.

  Performing system and environment tests:
  | Environment variable OMP_NUM_THREADS correctly set to 1.
  | Checking for ScaLAPACK...
  | Testing pdtran()...
  | All pdtran() tests passed.

  Obtaining array dimensions for all initial allocations:
  
  -----------------------------------------------------------------------
  Parsing control.in (first pass over file, find array dimensions only).
  The contents of control.in will be repeated verbatim below
  unless switched off by setting 'verbatim_writeout .false.' .
  in the first line of control.in .
  -----------------------------------------------------------------------
  
  xc                 hse06  0.11
  hse_unit b
  spin               collinear
  default_initial_moment 1
  charge      0.0
  relativistic       atomic_zora scalar
  #elsi_restart read
  # SCF settings
  #relax_geometry bfgs 1E-3
  #relax_unit_cell fixed_angles
  use_symmetric_forces .true.
  occupation_type gaussian       0.1
  # k-grid settings  (to be adjusted)
  k_grid  4 4 1
  #empty_states 8
  use_dipole_correction
  include_spin_orbit non_self_consistent
  # sc_accuracy_rho    1E-4
  #    sc_accuracy_eev    1E-3
  #    sc_accuracy_etot   1E-4
  #    sc_accuracy_forces 1E-2
  output dos_tetrahedron -10 0 2001 0.1
  output species_proj_dos_tetrahedron -10 0 2001 0.1
  
  many_body_dispersion_nl    beta=0.83
  ################################################################################
  #
  #  FHI-aims code project
  #  Volker Blum, 2018
  #
  #  Suggested "intermediate" defaults for Se atom (to be pasted into control.in file)
  #
  #  2020/09/15 These "intermediate" settings are identical to past "tight" defaults
  #             and differ only in the "g" function that is now included in "tight".
  #
  ################################################################################
    species        Se
  #     global species definitions
      nucleus             34
      mass                78.96
  #
      l_hartree           6
  #
      cut_pot             4.0          2.0  1.0
      basis_dep_cutoff    1e-4
  #
      radial_base         55 7.0
      radial_multiplier   2
      angular_grids       specified
        division   0.0830  110
        division   0.1357  194
        division   0.7377  302
        division   0.8610  434
  #      division   0.9640  590
  #      division   1.0773  770
  #      division   2.5539  974
  #      outer_grid  974
        outer_grid  434
  ################################################################################
  #
  #  Definition of "minimal" basis
  #
  ################################################################################
  #     valence basis states
      valence      4  s   2.
      valence      4  p   4.
      valence      3  d  10.
  #     ion occupancy
      ion_occ      4  s   1.
      ion_occ      4  p   3.
      ion_occ      3  d  10.
  ################################################################################
  #
  #  Suggested additional basis functions. For production calculations,
  #  uncomment them one after another (the most important basis functions are
  #  listed first).
  #
  #  Constructed for dimers: 1.85 A, 2.15 A, 2.50 A, 3.00 A, 4.00 A
  #
  ################################################################################
  #  "First tier" - improvements: -336.21 meV to -36.85 meV
       hydro 3 d 4.3
       hydro 2 p 1.6
       hydro 4 f 7.2
       ionic 4 s auto
  #  "Second tier" - improvements: -14.39 meV to -1.49 meV
  #     hydro 5 g 10.4
  #     hydro 4 p 4.5
  #     hydro 4 d 6.2
  #     hydro 4 f 11.2
  #     hydro 1 s 0.65
  #     hydro 6 h 15.2
  #  "Third tier" - improvements: -0.46 meV and below
  #     hydro 5 g 14.4
  #     ionic 4 d auto
  #     hydro 4 f 22.4
  #     hydro 5 f 7.4
  #     hydro 5 p 8
  #     hydro 5 s 9.4
  #  "Fourth tier" - improvements: -0.12 meV and below
  #     hydro 5 d 11.6
  #     hydro 6 h 18
  #     hydro 4 p 4
  #     hydro 5 f 16
  #     hydro 4 s 3.9
  
  
  ################################################################################
  #
  #  FHI-aims code project
  #  Volker Blum, 2018
  #
  #  Suggested "intermediate" defaults for S atom (to be pasted into control.in file)
  #
  ################################################################################
    species        S
  #     global species definitions
      nucleus             16
      mass                32.065
  #
      l_hartree           6
  #
      cut_pot             4.0          2.0  1.0
      basis_dep_cutoff    1e-4
  #
      radial_base         44 7.0
      radial_multiplier   2
      angular_grids       specified
        division   0.4665  110
        division   0.5810  194
        division   0.7139  302
        division   0.8274  434
  #      division   0.9105  590
  #      division   1.0975  770
  #      division   1.2028  974
  #      outer_grid  974
        outer_grid  434
  ################################################################################
  #
  #  Definition of "minimal" basis
  #
  ################################################################################
  #     valence basis states
      valence      3  s   2.
      valence      3  p   4.
  #     ion occupancy
      ion_occ      3  s   1.
      ion_occ      3  p   3.
  ################################################################################
  #
  #  Suggested additional basis functions. For production calculations,
  #  uncomment them one after another (the most important basis functions are
  #  listed first).
  #
  #  Constructed for dimers: 1.6 A, 1.9 A, 2.5 A, 3.25 A, 4.0 A
  #
  ################################################################################
  #  "First tier" - improvements: -652.81 meV to -45.53 meV
       ionic 3 d auto
       hydro 2 p 1.8
       hydro 4 f 7
       ionic 3 s auto
  #  "Second tier" - improvements: -30.20 meV to -1.74 meV
  #     hydro 4 d 6.2
  for_aux     hydro 5 g 10.8
  #     hydro 4 p 4.9
  #     hydro 5 f 10
  #     hydro 1 s 0.8
  #  "Third tier" - improvements: -1.04 meV to -0.20 meV
  #     hydro 3 d 3.9
  #     hydro 3 d 2.7
  #     hydro 5 g 12
  #     hydro 4 p 10.4
  #     hydro 5 f 12.4
  #     hydro 2 s 1.9
  #  "Fourth tier" - improvements: -0.35 meV to -0.06 meV
  #     hydro 4 d 10.4
  #     hydro 4 p 7.2
  #     hydro 4 d 10
  #     hydro 5 g 19.2
  #     hydro 4 s 12
  
  ################################################################################
  #
  #  FHI-aims code project
  # Volker Blum, Fritz Haber Institute Berlin, 2009
  #
  #  Suggested "intermediate" defaults for Mo atom (to be pasted into control.in file)
  #
  #  See https://aaltodoc.aalto.fi/handle/123456789/33620 for the report these
  #  setting are based on
  ################################################################################
    species        Mo
  #     global species definitions
      nucleus             42
      mass                95.94
  #
      l_hartree           6
  #
      cut_pot             4.0  2.0  1.0
      basis_dep_cutoff    1e-4
  #
      radial_base         59 7.0
      radial_multiplier   2
      angular_grids specified
        division   0.3117   50
        division   0.6750  110
        division   1.0351  194
        division   1.2073  302
        division   1.6402  434
  #      division   1.9185  590
  #      division   2.0237  770
  #      division   2.0980  974
  #      division   2.7972 1202
  #      outer_grid  974
        outer_grid  434
  ################################################################################
  #
  #  Definition of "minimal" basis
  #
  ################################################################################
  #     valence basis states
      valence      5  s   1.
      valence      4  p   6.
      valence      4  d   5.
  #     ion occupancy
      ion_occ     5  s   0.
      ion_occ     4  p   6.
      ion_occ     4  d   4.
  ################################################################################
  #
  #  Suggested additional basis functions. For production calculations,
  #  uncomment them one after another (the most important basis functions are
  #  listed first).
  #
  #  Constructed for dimers: 1.675 A, 1.9 A, 2.375 A, 3.00 A, 4.00 A
  #
  ################################################################################
  #  "First tier"  - max. impr. -711.23  meV, min. impr. -21.07 meV
       hydro 4 f 8.4
       hydro 3 d 2.8
       ionic 5 p auto
       for_aux hydro 5 g 12
       ionic 5 s auto
  #  "Second tier" - max. impr. -39.38  meV, min. impr. -2.68 meV
  #     hydro 4 f 12.4
  #     hydro 3 d 3.3
  #     hydro 6 h 17.2
  #     hydro 4 f 7.6
  #     hydro 3 p 3.0
  #     hydro 1 s 0.65
  #  "Third tier"  - max. impr. -5.50 meV, min. impr. -0.47 meV
  #     hydro 4 f 29.2
  #     hydro 5 g 11.2
  #     hydro 3 d 6.8
  #     hydro 6 h 14.8
  #     hydro 2 p 2.3
  #     hydro 4 s 3.8
  #  "Fourth tier"  - max. impr. -0.58 meV, min. impr. -0.19 meV
  #     hydro 5 f 6.8
  #     hydro 5 d 14.8
  #     hydro 6 s 7.8
  #     hydro 5 g 20.8
  #     hydro 5 d 10.4
  #     hydro 5 p 9.8
  #  Further functions - -0.17 meV and below
  #     hydro 5 d 3.2
  ################################################################################
  #
  #  FHI-aims code project
  #  Volker Blum, Maria Dragoumi, Sebastian Kokott 2020
  #
  #  Suggested "intermediate" defaults for W atom (to be pasted into control.in file)
  #
  ################################################################################
    species          W
  #     global species definitions
      nucleus        74
      mass           183.84
  #
      l_hartree      6
  #
      cut_pot        4.0  2.0  1.0
      basis_dep_cutoff    1e-4
  #
      radial_base    71  7.0
      radial_multiplier  2
      angular_grids specified
        division   0.2901   50
        division   0.6986  110
        division   1.0528  194
        division   1.2659  302
        division   1.5223  434
  #      division   1.8111  590
  #      division   2.0105  770
  #      division   2.0413  974
  #      division   2.8804 1202
  #      outer_grid  974
        outer_grid  434
  ################################################################################
  #
  #  Definition of "minimal" basis
  #
  ################################################################################
  #     valence basis states
      valence      6  s   2.
      valence      5  p   6.
      valence      5  d   4.
      valence      4  f  14.
  #     ion occupancy
      ion_occ      6  s   1.
      ion_occ      5  p   6.
      ion_occ      5  d   3.
      ion_occ      4  f  14.
  ################################################################################
  #
  #  Suggested additional basis functions. For production calculations,
  #  uncomment them one after another (the most important basis functions are
  #  listed first).
  #
  #  Constructed for dimers: 1.775, 1.99, 2.50, 3.25, 4.50 AA
  #
  ################################################################################
  #
  #  "First tier" - improvements: -603.77 meV to -28.99 meV
       hydro 4 f 7.8
       hydro 4 d 5.8
       ionic 6 p auto
    for_aux   hydro 5 g 12.4
       ionic 6 s auto
  #  "Second tier" - improvements: -28.30 meV to -1.31 meV
  #     hydro 6 h 16.8
  #     ionic 5 d auto
  #     hydro 4 f 8.6
  #     hydro 5 g 16.8
  #     hydro 5 d 8.4
  #     hydro 3 p 3.3
  #     hydro 1 s 0.55
  #  "Third tier" - max. impr. -1.79 meV, min. impr. -0.26 meV
  #     hydro 5 f 10.8
  #     hydro 5 g 34.4
  #     hydro 6 h 20.8
  #     hydro 5 g 12.8
  #     hydro 2 p 1.6
  #     hydro 4 s 4.7
  #     hydro 6 d 18.4
  #  "Fourth tier" -0.46 max. impr. - meV, min. impr. -0.09 meV
  #     hydro 6 h 21.6
  #     hydro 5 f 22.4
  #     hydro 4 f 4
  #     hydro 5 p 9.6
  #     hydro 6 d 17.2
  #     hydro 3 p 5.2
  #     hydro 5 g 4.7
  #     hydro 6 s 7.6
  
  -----------------------------------------------------------------------
  Completed first pass over input file control.in .
  -----------------------------------------------------------------------
  
  
  -----------------------------------------------------------------------
  Parsing geometry.in (first pass over file, find array dimensions only).
  The contents of geometry.in will be repeated verbatim below
  unless switched off by setting 'verbatim_writeout .false.' .
  in the first line of geometry.in .
  -----------------------------------------------------------------------
  
  #
  # This is the geometry file that corresponds to the current relaxation step.
  # If you do not want this file to be written, set the "write_restart_geometry" flag to .false.
  #  aims_uuid : 4187FF3E-71ED-46C7-A04C-006B793BEDB2
  #
    set_vacuum_level       103.288256
  lattice_vector     16.31232095      0.00000000      0.00000000
  lattice_vector     -8.15665875     14.12581815      0.00000000
  lattice_vector      0.00000000      0.00000000    103.32585319
  atom       0.00410505      0.95254129     51.67679602 Mo
  atom       1.65262407      1.94034529     53.30184045 Se
  atom       1.62397683      1.88014673     49.99038128 Se
  atom      -1.61651369      3.79222553     51.67002672 Mo
  atom       0.09177573      4.81568406     53.27394699 Se
  atom      -0.01389177      4.72587795     49.95274710 Se
  atom      -3.24990327      6.58475704     51.64783291 Mo
  atom      -1.52272760      7.52964999     53.25904895 Se
  atom      -1.61877620      7.50466454     49.94917806 Se
  atom      -4.89631969      9.40710044     51.64941892 Mo
  atom      -3.23186962     10.33985499     53.28756941 Se
  atom      -3.26813735     10.36079569     49.98197457 Se
  atom      -6.52641014     12.24179789     51.66990889 Mo
  atom      -4.87740346     13.20870377     53.31354383 Se
  atom      -4.89964791     13.19295134     50.00297537 Se
  atom       3.27475750      0.97595582     51.64722150 Mo
  atom       4.93906004      2.01031788     53.26877006 Se
  atom       4.88529727      1.91192901     49.94865132 Se
  atom       1.65160640      3.80651755     51.59960633 Mo
  atom       3.31594155      4.79901856     53.21213137 Se
  atom       3.28803209      4.70200065     49.89236438 Se
  atom       0.09618077      6.63754921     51.55005644 Mo
  atom       1.63523711      7.53009906     49.81929665 Se
  atom      -1.60047235      9.39813110     51.60473378 Mo
  atom       0.05661556     10.26501505     53.25905762 Se
  atom       0.03018551     10.36071402     49.94913554 Se
  atom      -3.25628466     12.24762631     51.64945921 Mo
  atom      -1.62327513     13.20714761     53.29518520 Se
  atom      -1.62421785     13.18824605     49.98853594 Se
  atom       6.52372566      0.98375830     51.62136873 Mo
  atom       8.09724263      1.97585990     53.28618440 Se
  atom       8.17775992      1.90248462     49.96773115 Se
  atom       4.97075867      3.83403532     51.54254355 Mo
  atom       6.53758701      4.69997438     49.83648509 Se
  atom       3.21995414      6.61521516     51.49893629 Mo
  atom       4.84092845      7.44027294     53.21209738 Se
  atom       4.91086933      7.51298764     49.89233161 Se
  atom       1.63865096      9.30927190     51.55002724 Mo
  atom       3.21429355     10.22397052     53.27391398 Se
  atom       3.23918888     10.36038305     49.95270337 Se
  atom       0.01134204     12.23318773     51.64788424 Mo
  atom       1.61581419     13.17759806     53.33080871 Se
  atom       1.64005630     13.19224288     50.01109377 Se
  atom       9.77992262      0.95511630     51.67332988 Mo
  atom      11.40424208      1.89055968     53.35006986 Se
  atom      11.42489594      1.87857771     50.02637692 Se
  atom       8.07431112      3.81286551     51.56984884 Mo
  atom       9.67673438      4.71159130     53.28615632 Se
  atom       9.78045686      4.67847973     49.96770319 Se
  atom       6.50407084      6.48989985     51.54248224 Mo
  atom       8.06763970      7.42924713     53.26870287 Se
  atom       8.12591788      7.52496421     49.94854449 Se
  atom       4.86827814      9.37786313     51.59959710 Mo
  atom       6.48496885     10.31012156     53.30183291 Se
  atom       6.52271013     10.36501865     49.99034151 Se
  atom       3.24646462     12.21508118     51.67004324 Mo
  atom       4.87725346     13.15476653     53.34380717 Se
  atom       4.88550167     13.18554193     50.02859384 Se
  atom      13.04777471      0.94172258     51.69639165 Mo
  atom      14.69742178      1.91016188     53.34380122 Se
  atom      14.67488589      1.88756730     50.02860211 Se
  atom      11.40214775      3.76488554     51.67328618 Mo
  atom      13.04683013      4.72312054     53.33074812 Se
  atom      13.04623755      4.69470670     50.01107430 Se
  atom       9.74907002      6.57029847     51.62132528 Mo
  atom      11.40150337      7.51318318     53.29512423 Se
  atom      11.41739425      7.52343466     49.98850742 Se
  atom       8.13124780      9.38764611     51.64716554 Mo
  atom       9.77301312     10.33032863     53.31350970 Se
  atom       9.77552932     10.35746282     50.00293759 Se
  atom       6.51612616     12.23162100     51.67677627 Mo
  atom       8.15688291     13.18221229     53.33528675 Se
  atom       8.14838597     13.18709907     50.01940922 Se
  #
  # What follows is the current estimated Hessian matrix constructed by the BFGS algorithm.
  # This is NOT the true Hessian matrix of the system.
  # If you do not want this information here, switch it off using the "hessian_to_restart_geometry" keyword.
  #
  
  -----------------------------------------------------------------------
  Completed first pass over input file geometry.in .
  -----------------------------------------------------------------------
  

  Basic array size parameters:
  | Number of species                 :        4
  | Number of atoms                   :       73
  | Number of lattice vectors         :        3
  | Max. basis fn. angular momentum   :        4
  | Max. atomic/ionic basis occupied n:        6
  | Max. number of basis fn. types    :        3
  | Max. radial fns per species/type  :       14
  | Max. logarithmic grid size        :     1483
  | Max. radial integration grid size :      143
  | Max. angular integration grid size:      434
  | Max. angular grid division number :        8
  | Radial grid for Hartree potential :     1483
  | Number of spin channels           :        2

------------------------------------------------------------
          Reading file control.in.
------------------------------------------------------------

  XC: Using HSE-functional with OMEGA =  0.110000E+00 <units>.
  XC: For the actual units (bohr^-1 or Angstrom^-1), see below.
  hse_unit: Unit for the HSE06 hybrid functional screening parameter set to bohr^(-1).
  Spin treatment: Spin density functional theory - collinear spins.
  Initial spin moment per atom:   1.0000
  Charge =   0.000000E+00: Neutral system requested explicitly.
  Scalar relativistic treatment of kinetic energy: on-site free-atom approximation to ZORA.
  Occupation type: Gaussian broadening, width =   0.100000E+00 eV.
  Found k-point grid:         4         4         1
  Using dipole correction.
  Calculating non-self-consistent second-variational spin-orbit coupling after scf-cycle
  You have request a SOC run with spin-polarization.
  symmetry_reduced_k_grid will be turned off.
  Calculating density of states with
  | energy interval :-10.000000  0.000000
  | points & tetrahedron method :  2001
  Calculating angular-momentum projected DOS with 
  | energy interval :-10.000000  0.000000
  | points & tetrahedron :  2001
  Using libMBD for calculating MBD and TS energies
 
  Reading configuration options for species Se                  .
  | Found nuclear charge :  34.0000
  | Found atomic mass :    78.9600000000000      amu
  | Found l_max for Hartree potential  :   6
  | Found cutoff potl. onset [A], width [A], scale factor :    4.00000    2.00000    1.00000
  | Threshold for basis-dependent cutoff potential is   0.100000E-03
  | Found data for basic radial integration grid :    55 points, outermost radius =    7.000 A
  | Found multiplier for basic radial grid :   2
  | Found angular grid specification: user-specified.
  | Specified grid contains     5 separate shells.
  | Check grid settings after all constraints further below.
  | Found free-atom valence shell :  4 s   2.000
  | Found free-atom valence shell :  4 p   4.000
  | Found free-atom valence shell :  3 d  10.000
  | Found free-ion valence shell :  4 s   1.000
  | Found free-ion valence shell :  4 p   3.000
  | Found free-ion valence shell :  3 d  10.000
  | Found hydrogenic basis function :  3 d   4.300
  | Found hydrogenic basis function :  2 p   1.600
  | Found hydrogenic basis function :  4 f   7.200
  | Found ionic basis function :  4 s , default cutoff radius.
  Species Se                  : Missing cutoff potential type.
  Defaulting to exp(1/x)/(1-x)^2 type cutoff potential.
  Species Se: No 'logarithmic' tag. Using default grid for free atom:
  | Default logarithmic grid data [bohr] : 0.1000E-03 0.1000E+03 0.1012E+01
  | Will include ionic basis functions of  2.0-fold positive Se                   ion.
  Species Se: On-site basis accuracy parameter (for Gram-Schmidt orthonormalisation) not specified.
  Using default value basis_acc =  0.1000000E-03.
  Species Se                  : Using default innermost maximum threshold i_radial=  2 for radial functions.
  Species Se                  : Default cutoff onset for free atom density etc. : 0.40000000E+01 AA.
  Species Se                  : Basic radial grid will be enhanced according to radial_multiplier =   2, to contain   111 grid points.
 
  Reading configuration options for species S                   .
  | Found nuclear charge :  16.0000
  | Found atomic mass :    32.0650000000000      amu
  | Found l_max for Hartree potential  :   6
  | Found cutoff potl. onset [A], width [A], scale factor :    4.00000    2.00000    1.00000
  | Threshold for basis-dependent cutoff potential is   0.100000E-03
  | Found data for basic radial integration grid :    44 points, outermost radius =    7.000 A
  | Found multiplier for basic radial grid :   2
  | Found angular grid specification: user-specified.
  | Specified grid contains     5 separate shells.
  | Check grid settings after all constraints further below.
  | Found free-atom valence shell :  3 s   2.000
  | Found free-atom valence shell :  3 p   4.000
  | Found free-ion valence shell :  3 s   1.000
  | Found free-ion valence shell :  3 p   3.000
  | Found ionic basis function :  3 d , default cutoff radius.
  | Found hydrogenic basis function :  2 p   1.800
  | Found hydrogenic basis function :  4 f   7.000
  | Found ionic basis function :  3 s , default cutoff radius.
  | Found hydrogenic extended basis function :  5 g  10.800
  Species S                   : Missing cutoff potential type.
  Defaulting to exp(1/x)/(1-x)^2 type cutoff potential.
  Species S : No 'logarithmic' tag. Using default grid for free atom:
  | Default logarithmic grid data [bohr] : 0.1000E-03 0.1000E+03 0.1012E+01
  | Will include ionic basis functions of  2.0-fold positive S                    ion.
  Species S : On-site basis accuracy parameter (for Gram-Schmidt orthonormalisation) not specified.
  Using default value basis_acc =  0.1000000E-03.
  Species S                   : Using default innermost maximum threshold i_radial=  2 for radial functions.
  Species S                   : Default cutoff onset for free atom density etc. : 0.40000000E+01 AA.
  Species S                   : Basic radial grid will be enhanced according to radial_multiplier =   2, to contain    89 grid points.
 
  Reading configuration options for species Mo                  .
  | Found nuclear charge :  42.0000
  | Found atomic mass :    95.9400000000000      amu
  | Found l_max for Hartree potential  :   6
  | Found cutoff potl. onset [A], width [A], scale factor :    4.00000    2.00000    1.00000
  | Threshold for basis-dependent cutoff potential is   0.100000E-03
  | Found data for basic radial integration grid :    59 points, outermost radius =    7.000 A
  | Found multiplier for basic radial grid :   2
  | Found angular grid specification: user-specified.
  | Specified grid contains     6 separate shells.
  | Check grid settings after all constraints further below.
  | Found free-atom valence shell :  5 s   1.000
  | Found free-atom valence shell :  4 p   6.000
  | Found free-atom valence shell :  4 d   5.000
  | Found free-ion valence shell :  5 s   0.000
  | Found free-ion valence shell :  4 p   6.000
  | Found free-ion valence shell :  4 d   4.000
  | Found hydrogenic basis function :  4 f   8.400
  | Found hydrogenic basis function :  3 d   2.800
  | Found ionic basis function :  5 p , default cutoff radius.
  | Found hydrogenic extended basis function :  5 g  12.000
  | Found ionic basis function :  5 s , default cutoff radius.
  Species Mo                  : Missing cutoff potential type.
  Defaulting to exp(1/x)/(1-x)^2 type cutoff potential.
  Species Mo: No 'logarithmic' tag. Using default grid for free atom:
  | Default logarithmic grid data [bohr] : 0.1000E-03 0.1000E+03 0.1012E+01
  | Will include ionic basis functions of  2.0-fold positive Mo                   ion.
  Species Mo: On-site basis accuracy parameter (for Gram-Schmidt orthonormalisation) not specified.
  Using default value basis_acc =  0.1000000E-03.
  Species Mo                  : Using default innermost maximum threshold i_radial=  2 for radial functions.
  Species Mo                  : Default cutoff onset for free atom density etc. : 0.40000000E+01 AA.
  Species Mo                  : Basic radial grid will be enhanced according to radial_multiplier =   2, to contain   119 grid points.
 
  Reading configuration options for species W                   .
  | Found nuclear charge :  74.0000
  | Found atomic mass :    183.840000000000      amu
  | Found l_max for Hartree potential  :   6
  | Found cutoff potl. onset [A], width [A], scale factor :    4.00000    2.00000    1.00000
  | Threshold for basis-dependent cutoff potential is   0.100000E-03
  | Found data for basic radial integration grid :    71 points, outermost radius =    7.000 A
  | Found multiplier for basic radial grid :   2
  | Found angular grid specification: user-specified.
  | Specified grid contains     6 separate shells.
  | Check grid settings after all constraints further below.
  | Found free-atom valence shell :  6 s   2.000
  | Found free-atom valence shell :  5 p   6.000
  | Found free-atom valence shell :  5 d   4.000
  | Found free-atom valence shell :  4 f  14.000
  | Found free-ion valence shell :  6 s   1.000
  | Found free-ion valence shell :  5 p   6.000
  | Found free-ion valence shell :  5 d   3.000
  | Found free-ion valence shell :  4 f  14.000
  | Found hydrogenic basis function :  4 f   7.800
  | Found hydrogenic basis function :  4 d   5.800
  | Found ionic basis function :  6 p , default cutoff radius.
  | Found hydrogenic extended basis function :  5 g  12.400
  | Found ionic basis function :  6 s , default cutoff radius.
  Species W                   : Missing cutoff potential type.
  Defaulting to exp(1/x)/(1-x)^2 type cutoff potential.
  Species W : No 'logarithmic' tag. Using default grid for free atom:
  | Default logarithmic grid data [bohr] : 0.1000E-03 0.1000E+03 0.1012E+01
  | Will include ionic basis functions of  2.0-fold positive W                    ion.
  Species W : On-site basis accuracy parameter (for Gram-Schmidt orthonormalisation) not specified.
  Using default value basis_acc =  0.1000000E-03.
  Species W                   : Using default innermost maximum threshold i_radial=  2 for radial functions.
  Species W                   : Default cutoff onset for free atom density etc. : 0.40000000E+01 AA.
  Species W                   : Basic radial grid will be enhanced according to radial_multiplier =   2, to contain   143 grid points.
 
  Finished reading input file 'control.in'.
 
------------------------------------------------------------


------------------------------------------------------------
          Reading geometry description geometry.in.
------------------------------------------------------------
  Vacuum level in z-axis :   0.103288E+03
  | The smallest distance between any two atoms is         2.47293000 AA.
  | The first atom of this pair is atom number                     34 .
  | The second atom of this pair is atom number                    50 .
  | Wigner-Seitz cell of the first atom image           0     0     0 .
  | (The Wigner-Seitz cell of the second atom is 0 0 0  by definition.)

  Symmetry information by spglib:
  | Precision set to  0.1E-04
  | Number of Operations  : 1
  | Space group           : 1
  | International         : P1 U
  | Schoenflies           : C1^1
  Input structure read successfully.
  The structure contains       73 atoms,  and a total of       2682.000 electrons.

  Input geometry:
  | Unit cell:
  |       16.31232095        0.00000000        0.00000000
  |       -8.15665875       14.12581815        0.00000000
  |        0.00000000        0.00000000      103.32585319
  | Atomic structure:
  |       Atom                x [A]            y [A]            z [A]
  |    1: Species Mo            0.00410505        0.95254129       51.67679602
  |    2: Species Se            1.65262407        1.94034529       53.30184045
  |    3: Species Se            1.62397683        1.88014673       49.99038128
  |    4: Species Mo           -1.61651369        3.79222553       51.67002672
  |    5: Species Se            0.09177573        4.81568406       53.27394699
  |    6: Species Se           -0.01389177        4.72587795       49.95274710
  |    7: Species Mo           -3.24990327        6.58475704       51.64783291
  |    8: Species Se           -1.52272760        7.52964999       53.25904895
  |    9: Species Se           -1.61877620        7.50466454       49.94917806
  |   10: Species Mo           -4.89631969        9.40710044       51.64941892
  |   11: Species Se           -3.23186962       10.33985499       53.28756941
  |   12: Species Se           -3.26813735       10.36079569       49.98197457
  |   13: Species Mo           -6.52641014       12.24179789       51.66990889
  |   14: Species Se           -4.87740346       13.20870377       53.31354383
  |   15: Species Se           -4.89964791       13.19295134       50.00297537
  |   16: Species Mo            3.27475750        0.97595582       51.64722150
  |   17: Species Se            4.93906004        2.01031788       53.26877006
  |   18: Species Se            4.88529727        1.91192901       49.94865132
  |   19: Species Mo            1.65160640        3.80651755       51.59960633
  |   20: Species Se            3.31594155        4.79901856       53.21213137
  |   21: Species Se            3.28803209        4.70200065       49.89236438
  |   22: Species Mo            0.09618077        6.63754921       51.55005644
  |   23: Species Se            1.63523711        7.53009906       49.81929665
  |   24: Species Mo           -1.60047235        9.39813110       51.60473378
  |   25: Species Se            0.05661556       10.26501505       53.25905762
  |   26: Species Se            0.03018551       10.36071402       49.94913554
  |   27: Species Mo           -3.25628466       12.24762631       51.64945921
  |   28: Species Se           -1.62327513       13.20714761       53.29518520
  |   29: Species Se           -1.62421785       13.18824605       49.98853594
  |   30: Species Mo            6.52372566        0.98375830       51.62136873
  |   31: Species Se            8.09724263        1.97585990       53.28618440
  |   32: Species Se            8.17775992        1.90248462       49.96773115
  |   33: Species Mo            4.97075867        3.83403532       51.54254355
  |   34: Species Se            6.53758701        4.69997438       49.83648509
  |   35: Species Mo            3.21995414        6.61521516       51.49893629
  |   36: Species Se            4.84092845        7.44027294       53.21209738
  |   37: Species Se            4.91086933        7.51298764       49.89233161
  |   38: Species Mo            1.63865096        9.30927190       51.55002724
  |   39: Species Se            3.21429355       10.22397052       53.27391398
  |   40: Species Se            3.23918888       10.36038305       49.95270337
  |   41: Species Mo            0.01134204       12.23318773       51.64788424
  |   42: Species Se            1.61581419       13.17759806       53.33080871
  |   43: Species Se            1.64005630       13.19224288       50.01109377
  |   44: Species Mo            9.77992262        0.95511630       51.67332988
  |   45: Species Se           11.40424208        1.89055968       53.35006986
  |   46: Species Se           11.42489594        1.87857771       50.02637692
  |   47: Species Mo            8.07431112        3.81286551       51.56984884
  |   48: Species Se            9.67673438        4.71159130       53.28615632
  |   49: Species Se            9.78045686        4.67847973       49.96770319
  |   50: Species Mo            6.50407084        6.48989985       51.54248224
  |   51: Species Se            8.06763970        7.42924713       53.26870287
  |   52: Species Se            8.12591788        7.52496421       49.94854449
  |   53: Species Mo            4.86827814        9.37786313       51.59959710
  |   54: Species Se            6.48496885       10.31012156       53.30183291
  |   55: Species Se            6.52271013       10.36501865       49.99034151
  |   56: Species Mo            3.24646462       12.21508118       51.67004324
  |   57: Species Se            4.87725346       13.15476653       53.34380717
  |   58: Species Se            4.88550167       13.18554193       50.02859384
  |   59: Species Mo           13.04777471        0.94172258       51.69639165
  |   60: Species Se           14.69742178        1.91016188       53.34380122
  |   61: Species Se           14.67488589        1.88756730       50.02860211
  |   62: Species Mo           11.40214775        3.76488554       51.67328618
  |   63: Species Se           13.04683013        4.72312054       53.33074812
  |   64: Species Se           13.04623755        4.69470670       50.01107430
  |   65: Species Mo            9.74907002        6.57029847       51.62132528
  |   66: Species Se           11.40150337        7.51318318       53.29512423
  |   67: Species Se           11.41739425        7.52343466       49.98850742
  |   68: Species Mo            8.13124780        9.38764611       51.64716554
  |   69: Species Se            9.77301312       10.33032863       53.31350970
  |   70: Species Se            9.77552932       10.35746282       50.00293759
  |   71: Species Mo            6.51612616       12.23162100       51.67677627
  |   72: Species Se            8.15688291       13.18221229       53.33528675
  |   73: Species Se            8.14838597       13.18709907       50.01940922

  Lattice parameters for 3D lattice (in Angstroms) :    16.312321   16.311647  103.325853
  Angle(s) between unit vectors (in degrees)       :    90.000000   90.000000  120.003388


  Quantities derived from the lattice vectors:
  | Reciprocal lattice vector 1:  0.385180  0.222414  0.000000
  | Reciprocal lattice vector 2:  0.000000  0.444802  0.000000
  | Reciprocal lattice vector 3:  0.000000  0.000000  0.060809
  | Unit cell volume                               :   0.238088E+05  A^3

  Fractional coordinates:
                         L1                L2                L3
       atom_frac         0.03397004        0.06743265        0.50013423  Mo
       atom_frac         0.16999641        0.13736162        0.51586160  Se
       atom_frac         0.16610931        0.13310002        0.48381291  Se
       atom_frac         0.03514078        0.26846059        0.50006872  Mo
       atom_frac         0.17609339        0.34091364        0.51559165  Se
       atom_frac         0.16643663        0.33455605        0.48344868  Se
       atom_frac         0.03385951        0.46615049        0.49985392  Mo
       atom_frac         0.17318882        0.53304169        0.51544746  Se
       atom_frac         0.16641627        0.53127291        0.48341414  Se
       atom_frac         0.03283494        0.66595084        0.49986927  Mo
       atom_frac         0.16788928        0.73198273        0.51572349  Se
       atom_frac         0.16640721        0.73346518        0.48373154  Se
       atom_frac         0.03324852        0.86662576        0.50006758  Mo
       atom_frac         0.16856502        0.93507531        0.51597487  Se
       atom_frac         0.16664375        0.93396016        0.48393479  Se
       atom_frac         0.23530084        0.06909022        0.49984800  Mo
       atom_frac         0.37394287        0.14231515        0.51554155  Se
       atom_frac         0.36716423        0.13534997        0.48340904  Se
       atom_frac         0.23599342        0.26947236        0.49938718  Mo
       atom_frac         0.37315564        0.33973385        0.51499339  Se
       atom_frac         0.36801043        0.33286572        0.48286429  Se
       atom_frac         0.24085444        0.46988777        0.49890763  Mo
       atom_frac         0.36679854        0.53307348        0.48215713  Se
       atom_frac         0.23456394        0.66531588        0.49943680  Mo
       atom_frac         0.36683524        0.72668464        0.51544755  Se
       atom_frac         0.36860257        0.73345939        0.48341372  Se
       atom_frac         0.23392449        0.86703837        0.49986966  Mo
       atom_frac         0.36799892        0.93496514        0.51579719  Se
       atom_frac         0.36727204        0.93362706        0.48379505  Se
       atom_frac         0.43474968        0.06964257        0.49959780  Mo
       atom_frac         0.56633030        0.13987578        0.51571008  Se
       atom_frac         0.56866892        0.13468138        0.48359370  Se
       atom_frac         0.44044268        0.27142041        0.49883492  Mo
       atom_frac         0.56714732        0.33272228        0.48232348  Se
       atom_frac         0.43156164        0.46830669        0.49841288  Mo
       atom_frac         0.56013848        0.52671448        0.51499306  Se
       atom_frac         0.56700007        0.53186212        0.48286397  Se
       atom_frac         0.42998759        0.65902533        0.49890735  Mo
       atom_frac         0.55895859        0.72377900        0.51559133  Se
       atom_frac         0.56531353        0.73343596        0.48344825  Se
       atom_frac         0.43372987        0.86601623        0.49985442  Mo
       atom_frac         0.56551996        0.93287326        0.51614196  Se
       atom_frac         0.56752448        0.93391000        0.48401336  Se
       atom_frac         0.63335160        0.06761494        0.50010068  Mo
       atom_frac         0.76604098        0.13383718        0.51632837  Se
       atom_frac         0.76688299        0.13298895        0.48416128  Se
       atom_frac         0.62995148        0.26992175        0.49909918  Mo
       atom_frac         0.75999880        0.33354467        0.51570981  Se
       atom_frac         0.76518524        0.33120062        0.48359342  Se
       atom_frac         0.62845306        0.45943532        0.49883433  Mo
       atom_frac         0.75755641        0.52593394        0.51554090  Se
       atom_frac         0.76451729        0.53270997        0.48340800  Se
       atom_frac         0.63040259        0.66388106        0.49938709  Mo
       atom_frac         0.76251156        0.72987783        0.51586153  Se
       atom_frac         0.76676849        0.73376413        0.48381252  Se
       atom_frac         0.63141280        0.86473442        0.50006888  Mo
       atom_frac         0.76464893        0.93125696        0.51626776  Se
       atom_frac         0.76624397        0.93343563        0.48418273  Se
       atom_frac         0.83320778        0.06666676        0.50032388  Mo
       atom_frac         0.96861783        0.13522487        0.51626771  Se
       atom_frac         0.96643649        0.13362534        0.48418281  Se
       atom_frac         0.83226062        0.26652513        0.50010026  Mo
       atom_frac         0.96700509        0.33436085        0.51614138  Se
       atom_frac         0.96596296        0.33234937        0.48401318  Se
       atom_frac         0.83022837        0.46512693        0.49959738  Mo
       atom_frac         0.96490464        0.53187597        0.51579660  Se
       atom_frac         0.96624169        0.53260169        0.48379477  Se
       atom_frac         0.83077988        0.66457362        0.49984746  Mo
       atom_frac         0.96479500        0.73130834        0.51597454  Se
       atom_frac         0.96590976        0.73322923        0.48393443  Se
       atom_frac         0.83243950        0.86590531        0.50013404  Mo
       atom_frac         0.96667275        0.93319991        0.51618530  Se
       atom_frac         0.96632484        0.93354586        0.48409384  Se

  Initial moments and charges:
  |  Atom   Moment         Charge        Species
  |     1   0.100000E+01   0.000000E+00   Mo
  |     2   0.100000E+01   0.000000E+00   Se
  |     3   0.100000E+01   0.000000E+00   Se
  |     4   0.100000E+01   0.000000E+00   Mo
  |     5   0.100000E+01   0.000000E+00   Se
  |     6   0.100000E+01   0.000000E+00   Se
  |     7   0.100000E+01   0.000000E+00   Mo
  |     8   0.100000E+01   0.000000E+00   Se
  |     9   0.100000E+01   0.000000E+00   Se
  |    10   0.100000E+01   0.000000E+00   Mo
  |    11   0.100000E+01   0.000000E+00   Se
  |    12   0.100000E+01   0.000000E+00   Se
  |    13   0.100000E+01   0.000000E+00   Mo
  |    14   0.100000E+01   0.000000E+00   Se
  |    15   0.100000E+01   0.000000E+00   Se
  |    16   0.100000E+01   0.000000E+00   Mo
  |    17   0.100000E+01   0.000000E+00   Se
  |    18   0.100000E+01   0.000000E+00   Se
  |    19   0.100000E+01   0.000000E+00   Mo
  |    20   0.100000E+01   0.000000E+00   Se
  |    21   0.100000E+01   0.000000E+00   Se
  |    22   0.100000E+01   0.000000E+00   Mo
  |    23   0.100000E+01   0.000000E+00   Se
  |    24   0.100000E+01   0.000000E+00   Mo
  |    25   0.100000E+01   0.000000E+00   Se
  |    26   0.100000E+01   0.000000E+00   Se
  |    27   0.100000E+01   0.000000E+00   Mo
  |    28   0.100000E+01   0.000000E+00   Se
  |    29   0.100000E+01   0.000000E+00   Se
  |    30   0.100000E+01   0.000000E+00   Mo
  |    31   0.100000E+01   0.000000E+00   Se
  |    32   0.100000E+01   0.000000E+00   Se
  |    33   0.100000E+01   0.000000E+00   Mo
  |    34   0.100000E+01   0.000000E+00   Se
  |    35   0.100000E+01   0.000000E+00   Mo
  |    36   0.100000E+01   0.000000E+00   Se
  |    37   0.100000E+01   0.000000E+00   Se
  |    38   0.100000E+01   0.000000E+00   Mo
  |    39   0.100000E+01   0.000000E+00   Se
  |    40   0.100000E+01   0.000000E+00   Se
  |    41   0.100000E+01   0.000000E+00   Mo
  |    42   0.100000E+01   0.000000E+00   Se
  |    43   0.100000E+01   0.000000E+00   Se
  |    44   0.100000E+01   0.000000E+00   Mo
  |    45   0.100000E+01   0.000000E+00   Se
  |    46   0.100000E+01   0.000000E+00   Se
  |    47   0.100000E+01   0.000000E+00   Mo
  |    48   0.100000E+01   0.000000E+00   Se
  |    49   0.100000E+01   0.000000E+00   Se
  |    50   0.100000E+01   0.000000E+00   Mo
  |    51   0.100000E+01   0.000000E+00   Se
  |    52   0.100000E+01   0.000000E+00   Se
  |    53   0.100000E+01   0.000000E+00   Mo
  |    54   0.100000E+01   0.000000E+00   Se
  |    55   0.100000E+01   0.000000E+00   Se
  |    56   0.100000E+01   0.000000E+00   Mo
  |    57   0.100000E+01   0.000000E+00   Se
  |    58   0.100000E+01   0.000000E+00   Se
  |    59   0.100000E+01   0.000000E+00   Mo
  |    60   0.100000E+01   0.000000E+00   Se
  |    61   0.100000E+01   0.000000E+00   Se
  |    62   0.100000E+01   0.000000E+00   Mo
  |    63   0.100000E+01   0.000000E+00   Se
  |    64   0.100000E+01   0.000000E+00   Se
  |    65   0.100000E+01   0.000000E+00   Mo
  |    66   0.100000E+01   0.000000E+00   Se
  |    67   0.100000E+01   0.000000E+00   Se
  |    68   0.100000E+01   0.000000E+00   Mo
  |    69   0.100000E+01   0.000000E+00   Se
  |    70   0.100000E+01   0.000000E+00   Se
  |    71   0.100000E+01   0.000000E+00   Mo
  |    72   0.100000E+01   0.000000E+00   Se
  |    73   0.100000E+01   0.000000E+00   Se

 
  Finished reading input file 'control.in'.
 

------------------------------------------------------------
          Reading geometry description geometry.in.
------------------------------------------------------------
 
  Consistency checks for stacksize environment parameter are next.
 
  | Maximum stacksize for task 0: unlimited
  | Maximum stacksize for task 1: unlimited
  | Maximum stacksize for task 2: unlimited
  | Maximum stacksize for task 3: unlimited
  | Maximum stacksize for task 4: unlimited
  | Maximum stacksize for task 5: unlimited
  | Maximum stacksize for task 6: unlimited
  | Maximum stacksize for task 7: unlimited
  | Maximum stacksize for task 8: unlimited
  | Maximum stacksize for task 9: unlimited
  | Maximum stacksize for task 10: unlimited
  | Maximum stacksize for task 11: unlimited
  | Maximum stacksize for task 12: unlimited
  | Maximum stacksize for task 13: unlimited
  | Maximum stacksize for task 14: unlimited
  | Maximum stacksize for task 15: unlimited
  | Maximum stacksize for task 16: unlimited
  | Maximum stacksize for task 17: unlimited
  | Maximum stacksize for task 18: unlimited
  | Maximum stacksize for task 19: unlimited
  | Maximum stacksize for task 20: unlimited
  | Maximum stacksize for task 21: unlimited
  | Maximum stacksize for task 22: unlimited
  | Maximum stacksize for task 23: unlimited
  | Maximum stacksize for task 24: unlimited
  | Maximum stacksize for task 25: unlimited
  | Maximum stacksize for task 26: unlimited
  | Maximum stacksize for task 27: unlimited
  | Maximum stacksize for task 28: unlimited
  | Maximum stacksize for task 29: unlimited
  | Maximum stacksize for task 30: unlimited
  | Maximum stacksize for task 31: unlimited
  | Maximum stacksize for task 32: unlimited
  | Maximum stacksize for task 33: unlimited
  | Maximum stacksize for task 34: unlimited
  | Maximum stacksize for task 35: unlimited
  | Maximum stacksize for task 36: unlimited
  | Maximum stacksize for task 37: unlimited
  | Maximum stacksize for task 38: unlimited
  | Maximum stacksize for task 39: unlimited
  | Maximum stacksize for task 40: unlimited
  | Maximum stacksize for task 41: unlimited
  | Maximum stacksize for task 42: unlimited
  | Maximum stacksize for task 43: unlimited
  | Maximum stacksize for task 44: unlimited
  | Maximum stacksize for task 45: unlimited
  | Maximum stacksize for task 46: unlimited
  | Maximum stacksize for task 47: unlimited
  | Maximum stacksize for task 48: unlimited
  | Maximum stacksize for task 49: unlimited
  | Maximum stacksize for task 50: unlimited
  | Maximum stacksize for task 51: unlimited
  | Maximum stacksize for task 52: unlimited
  | Maximum stacksize for task 53: unlimited
  | Maximum stacksize for task 54: unlimited
  | Maximum stacksize for task 55: unlimited
  | Maximum stacksize for task 56: unlimited
  | Maximum stacksize for task 57: unlimited
  | Maximum stacksize for task 58: unlimited
  | Maximum stacksize for task 59: unlimited
  | Maximum stacksize for task 60: unlimited
  | Maximum stacksize for task 61: unlimited
  | Maximum stacksize for task 62: unlimited
  | Maximum stacksize for task 63: unlimited
  | Maximum stacksize for task 64: unlimited
  | Maximum stacksize for task 65: unlimited
  | Maximum stacksize for task 66: unlimited
  | Maximum stacksize for task 67: unlimited
  | Maximum stacksize for task 68: unlimited
  | Maximum stacksize for task 69: unlimited
  | Maximum stacksize for task 70: unlimited
  | Maximum stacksize for task 71: unlimited
  | Maximum stacksize for task 72: unlimited
  | Maximum stacksize for task 73: unlimited
  | Maximum stacksize for task 74: unlimited
  | Maximum stacksize for task 75: unlimited
  | Maximum stacksize for task 76: unlimited
  | Maximum stacksize for task 77: unlimited
  | Maximum stacksize for task 78: unlimited
  | Maximum stacksize for task 79: unlimited
  | Maximum stacksize for task 80: unlimited
  | Maximum stacksize for task 81: unlimited
  | Maximum stacksize for task 82: unlimited
  | Maximum stacksize for task 83: unlimited
  | Maximum stacksize for task 84: unlimited
  | Maximum stacksize for task 85: unlimited
  | Maximum stacksize for task 86: unlimited
  | Maximum stacksize for task 87: unlimited
  | Maximum stacksize for task 88: unlimited
  | Maximum stacksize for task 89: unlimited
  | Maximum stacksize for task 90: unlimited
  | Maximum stacksize for task 91: unlimited
  | Maximum stacksize for task 92: unlimited
  | Maximum stacksize for task 93: unlimited
  | Maximum stacksize for task 94: unlimited
  | Maximum stacksize for task 95: unlimited
  | Maximum stacksize for task 96: unlimited
  | Maximum stacksize for task 97: unlimited
  | Maximum stacksize for task 98: unlimited
  | Maximum stacksize for task 99: unlimited
  | Maximum stacksize for task 100: unlimited
  | Maximum stacksize for task 101: unlimited
  | Maximum stacksize for task 102: unlimited
  | Maximum stacksize for task 103: unlimited
  | Maximum stacksize for task 104: unlimited
  | Maximum stacksize for task 105: unlimited
  | Maximum stacksize for task 106: unlimited
  | Maximum stacksize for task 107: unlimited
  | Maximum stacksize for task 108: unlimited
  | Maximum stacksize for task 109: unlimited
  | Maximum stacksize for task 110: unlimited
  | Maximum stacksize for task 111: unlimited
  | Maximum stacksize for task 112: unlimited
  | Maximum stacksize for task 113: unlimited
  | Maximum stacksize for task 114: unlimited
  | Maximum stacksize for task 115: unlimited
  | Maximum stacksize for task 116: unlimited
  | Maximum stacksize for task 117: unlimited
  | Maximum stacksize for task 118: unlimited
  | Maximum stacksize for task 119: unlimited
  | Maximum stacksize for task 120: unlimited
  | Maximum stacksize for task 121: unlimited
  | Maximum stacksize for task 122: unlimited
  | Maximum stacksize for task 123: unlimited
  | Maximum stacksize for task 124: unlimited
  | Maximum stacksize for task 125: unlimited
  | Maximum stacksize for task 126: unlimited
  | Maximum stacksize for task 127: unlimited
  | Maximum stacksize for task 128: unlimited
  | Maximum stacksize for task 129: unlimited
  | Maximum stacksize for task 130: unlimited
  | Maximum stacksize for task 131: unlimited
  | Maximum stacksize for task 132: unlimited
  | Maximum stacksize for task 133: unlimited
  | Maximum stacksize for task 134: unlimited
  | Maximum stacksize for task 135: unlimited
  | Maximum stacksize for task 136: unlimited
  | Maximum stacksize for task 137: unlimited
  | Maximum stacksize for task 138: unlimited
  | Maximum stacksize for task 139: unlimited
  | Maximum stacksize for task 140: unlimited
  | Maximum stacksize for task 141: unlimited
  | Maximum stacksize for task 142: unlimited
  | Maximum stacksize for task 143: unlimited
  | Maximum stacksize for task 144: unlimited
  | Maximum stacksize for task 145: unlimited
  | Maximum stacksize for task 146: unlimited
  | Maximum stacksize for task 147: unlimited
  | Maximum stacksize for task 148: unlimited
  | Maximum stacksize for task 149: unlimited
  | Maximum stacksize for task 150: unlimited
  | Maximum stacksize for task 151: unlimited
  | Maximum stacksize for task 152: unlimited
  | Maximum stacksize for task 153: unlimited
  | Maximum stacksize for task 154: unlimited
  | Maximum stacksize for task 155: unlimited
  | Maximum stacksize for task 156: unlimited
  | Maximum stacksize for task 157: unlimited
  | Maximum stacksize for task 158: unlimited
  | Maximum stacksize for task 159: unlimited
  | Maximum stacksize for task 160: unlimited
  | Maximum stacksize for task 161: unlimited
  | Maximum stacksize for task 162: unlimited
  | Maximum stacksize for task 163: unlimited
  | Maximum stacksize for task 164: unlimited
  | Maximum stacksize for task 165: unlimited
  | Maximum stacksize for task 166: unlimited
  | Maximum stacksize for task 167: unlimited
  | Maximum stacksize for task 168: unlimited
  | Maximum stacksize for task 169: unlimited
  | Maximum stacksize for task 170: unlimited
  | Maximum stacksize for task 171: unlimited
  | Maximum stacksize for task 172: unlimited
  | Maximum stacksize for task 173: unlimited
  | Maximum stacksize for task 174: unlimited
  | Maximum stacksize for task 175: unlimited
  | Maximum stacksize for task 176: unlimited
  | Maximum stacksize for task 177: unlimited
  | Maximum stacksize for task 178: unlimited
  | Maximum stacksize for task 179: unlimited
  | Maximum stacksize for task 180: unlimited
  | Maximum stacksize for task 181: unlimited
  | Maximum stacksize for task 182: unlimited
  | Maximum stacksize for task 183: unlimited
  | Maximum stacksize for task 184: unlimited
  | Maximum stacksize for task 185: unlimited
  | Maximum stacksize for task 186: unlimited
  | Maximum stacksize for task 187: unlimited
  | Maximum stacksize for task 188: unlimited
  | Maximum stacksize for task 189: unlimited
  | Maximum stacksize for task 190: unlimited
  | Maximum stacksize for task 191: unlimited
  | Maximum stacksize for task 192: unlimited
  | Maximum stacksize for task 193: unlimited
  | Maximum stacksize for task 194: unlimited
  | Maximum stacksize for task 195: unlimited
  | Maximum stacksize for task 196: unlimited
  | Maximum stacksize for task 197: unlimited
  | Maximum stacksize for task 198: unlimited
  | Maximum stacksize for task 199: unlimited
  | Maximum stacksize for task 200: unlimited
  | Maximum stacksize for task 201: unlimited
  | Maximum stacksize for task 202: unlimited
  | Maximum stacksize for task 203: unlimited
  | Maximum stacksize for task 204: unlimited
  | Maximum stacksize for task 205: unlimited
  | Maximum stacksize for task 206: unlimited
  | Maximum stacksize for task 207: unlimited
  | Maximum stacksize for task 208: unlimited
  | Maximum stacksize for task 209: unlimited
  | Maximum stacksize for task 210: unlimited
  | Maximum stacksize for task 211: unlimited
  | Maximum stacksize for task 212: unlimited
  | Maximum stacksize for task 213: unlimited
  | Maximum stacksize for task 214: unlimited
  | Maximum stacksize for task 215: unlimited
  | Maximum stacksize for task 216: unlimited
  | Maximum stacksize for task 217: unlimited
  | Maximum stacksize for task 218: unlimited
  | Maximum stacksize for task 219: unlimited
  | Maximum stacksize for task 220: unlimited
  | Maximum stacksize for task 221: unlimited
  | Maximum stacksize for task 222: unlimited
  | Maximum stacksize for task 223: unlimited
  | Maximum stacksize for task 224: unlimited
  | Maximum stacksize for task 225: unlimited
  | Maximum stacksize for task 226: unlimited
  | Maximum stacksize for task 227: unlimited
  | Maximum stacksize for task 228: unlimited
  | Maximum stacksize for task 229: unlimited
  | Maximum stacksize for task 230: unlimited
  | Maximum stacksize for task 231: unlimited
  | Maximum stacksize for task 232: unlimited
  | Maximum stacksize for task 233: unlimited
  | Maximum stacksize for task 234: unlimited
  | Maximum stacksize for task 235: unlimited
  | Maximum stacksize for task 236: unlimited
  | Maximum stacksize for task 237: unlimited
  | Maximum stacksize for task 238: unlimited
  | Maximum stacksize for task 239: unlimited
  | Maximum stacksize for task 240: unlimited
  | Maximum stacksize for task 241: unlimited
  | Maximum stacksize for task 242: unlimited
  | Maximum stacksize for task 243: unlimited
  | Maximum stacksize for task 244: unlimited
  | Maximum stacksize for task 245: unlimited
  | Maximum stacksize for task 246: unlimited
  | Maximum stacksize for task 247: unlimited
  | Maximum stacksize for task 248: unlimited
  | Maximum stacksize for task 249: unlimited
  | Maximum stacksize for task 250: unlimited
  | Maximum stacksize for task 251: unlimited
  | Maximum stacksize for task 252: unlimited
  | Maximum stacksize for task 253: unlimited
  | Maximum stacksize for task 254: unlimited
  | Maximum stacksize for task 255: unlimited
  | Maximum stacksize for task 256: unlimited
  | Maximum stacksize for task 257: unlimited
  | Maximum stacksize for task 258: unlimited
  | Maximum stacksize for task 259: unlimited
  | Maximum stacksize for task 260: unlimited
  | Maximum stacksize for task 261: unlimited
  | Maximum stacksize for task 262: unlimited
  | Maximum stacksize for task 263: unlimited
  | Maximum stacksize for task 264: unlimited
  | Maximum stacksize for task 265: unlimited
  | Maximum stacksize for task 266: unlimited
  | Maximum stacksize for task 267: unlimited
  | Maximum stacksize for task 268: unlimited
  | Maximum stacksize for task 269: unlimited
  | Maximum stacksize for task 270: unlimited
  | Maximum stacksize for task 271: unlimited
  | Maximum stacksize for task 272: unlimited
  | Maximum stacksize for task 273: unlimited
  | Maximum stacksize for task 274: unlimited
  | Maximum stacksize for task 275: unlimited
  | Maximum stacksize for task 276: unlimited
  | Maximum stacksize for task 277: unlimited
  | Maximum stacksize for task 278: unlimited
  | Maximum stacksize for task 279: unlimited
  | Maximum stacksize for task 280: unlimited
  | Maximum stacksize for task 281: unlimited
  | Maximum stacksize for task 282: unlimited
  | Maximum stacksize for task 283: unlimited
  | Maximum stacksize for task 284: unlimited
  | Maximum stacksize for task 285: unlimited
  | Maximum stacksize for task 286: unlimited
  | Maximum stacksize for task 287: unlimited
  | Current stacksize for task 0: unlimited
  | Current stacksize for task 1: unlimited
  | Current stacksize for task 2: unlimited
  | Current stacksize for task 3: unlimited
  | Current stacksize for task 4: unlimited
  | Current stacksize for task 5: unlimited
  | Current stacksize for task 6: unlimited
  | Current stacksize for task 7: unlimited
  | Current stacksize for task 8: unlimited
  | Current stacksize for task 9: unlimited
  | Current stacksize for task 10: unlimited
  | Current stacksize for task 11: unlimited
  | Current stacksize for task 12: unlimited
  | Current stacksize for task 13: unlimited
  | Current stacksize for task 14: unlimited
  | Current stacksize for task 15: unlimited
  | Current stacksize for task 16: unlimited
  | Current stacksize for task 17: unlimited
  | Current stacksize for task 18: unlimited
  | Current stacksize for task 19: unlimited
  | Current stacksize for task 20: unlimited
  | Current stacksize for task 21: unlimited
  | Current stacksize for task 22: unlimited
  | Current stacksize for task 23: unlimited
  | Current stacksize for task 24: unlimited
  | Current stacksize for task 25: unlimited
  | Current stacksize for task 26: unlimited
  | Current stacksize for task 27: unlimited
  | Current stacksize for task 28: unlimited
  | Current stacksize for task 29: unlimited
  | Current stacksize for task 30: unlimited
  | Current stacksize for task 31: unlimited
  | Current stacksize for task 32: unlimited
  | Current stacksize for task 33: unlimited
  | Current stacksize for task 34: unlimited
  | Current stacksize for task 35: unlimited
  | Current stacksize for task 36: unlimited
  | Current stacksize for task 37: unlimited
  | Current stacksize for task 38: unlimited
  | Current stacksize for task 39: unlimited
  | Current stacksize for task 40: unlimited
  | Current stacksize for task 41: unlimited
  | Current stacksize for task 42: unlimited
  | Current stacksize for task 43: unlimited
  | Current stacksize for task 44: unlimited
  | Current stacksize for task 45: unlimited
  | Current stacksize for task 46: unlimited
  | Current stacksize for task 47: unlimited
  | Current stacksize for task 48: unlimited
  | Current stacksize for task 49: unlimited
  | Current stacksize for task 50: unlimited
  | Current stacksize for task 51: unlimited
  | Current stacksize for task 52: unlimited
  | Current stacksize for task 53: unlimited
  | Current stacksize for task 54: unlimited
  | Current stacksize for task 55: unlimited
  | Current stacksize for task 56: unlimited
  | Current stacksize for task 57: unlimited
  | Current stacksize for task 58: unlimited
  | Current stacksize for task 59: unlimited
  | Current stacksize for task 60: unlimited
  | Current stacksize for task 61: unlimited
  | Current stacksize for task 62: unlimited
  | Current stacksize for task 63: unlimited
  | Current stacksize for task 64: unlimited
  | Current stacksize for task 65: unlimited
  | Current stacksize for task 66: unlimited
  | Current stacksize for task 67: unlimited
  | Current stacksize for task 68: unlimited
  | Current stacksize for task 69: unlimited
  | Current stacksize for task 70: unlimited
  | Current stacksize for task 71: unlimited
  | Current stacksize for task 72: unlimited
  | Current stacksize for task 73: unlimited
  | Current stacksize for task 74: unlimited
  | Current stacksize for task 75: unlimited
  | Current stacksize for task 76: unlimited
  | Current stacksize for task 77: unlimited
  | Current stacksize for task 78: unlimited
  | Current stacksize for task 79: unlimited
  | Current stacksize for task 80: unlimited
  | Current stacksize for task 81: unlimited
  | Current stacksize for task 82: unlimited
  | Current stacksize for task 83: unlimited
  | Current stacksize for task 84: unlimited
  | Current stacksize for task 85: unlimited
  | Current stacksize for task 86: unlimited
  | Current stacksize for task 87: unlimited
  | Current stacksize for task 88: unlimited
  | Current stacksize for task 89: unlimited
  | Current stacksize for task 90: unlimited
  | Current stacksize for task 91: unlimited
  | Current stacksize for task 92: unlimited
  | Current stacksize for task 93: unlimited
  | Current stacksize for task 94: unlimited
  | Current stacksize for task 95: unlimited
  | Current stacksize for task 96: unlimited
  | Current stacksize for task 97: unlimited
  | Current stacksize for task 98: unlimited
  | Current stacksize for task 99: unlimited
  | Current stacksize for task 100: unlimited
  | Current stacksize for task 101: unlimited
  | Current stacksize for task 102: unlimited
  | Current stacksize for task 103: unlimited
  | Current stacksize for task 104: unlimited
  | Current stacksize for task 105: unlimited
  | Current stacksize for task 106: unlimited
  | Current stacksize for task 107: unlimited
  | Current stacksize for task 108: unlimited
  | Current stacksize for task 109: unlimited
  | Current stacksize for task 110: unlimited
  | Current stacksize for task 111: unlimited
  | Current stacksize for task 112: unlimited
  | Current stacksize for task 113: unlimited
  | Current stacksize for task 114: unlimited
  | Current stacksize for task 115: unlimited
  | Current stacksize for task 116: unlimited
  | Current stacksize for task 117: unlimited
  | Current stacksize for task 118: unlimited
  | Current stacksize for task 119: unlimited
  | Current stacksize for task 120: unlimited
  | Current stacksize for task 121: unlimited
  | Current stacksize for task 122: unlimited
  | Current stacksize for task 123: unlimited
  | Current stacksize for task 124: unlimited
  | Current stacksize for task 125: unlimited
  | Current stacksize for task 126: unlimited
  | Current stacksize for task 127: unlimited
  | Current stacksize for task 128: unlimited
  | Current stacksize for task 129: unlimited
  | Current stacksize for task 130: unlimited
  | Current stacksize for task 131: unlimited
[...]
  |    29       34.055929       -0.055929        7.887152       15.939356       10.184132        0.045289
  |    30       41.924522        0.075478        8.199556       18.736342       14.902846        0.085778
  |    31       34.066848       -0.066848        7.892622       15.944897       10.184914        0.044414
  |    32       34.030574       -0.030574        7.883520       15.907177       10.192261        0.047615
  |    33       41.892239        0.107761        8.251972       18.710703       14.854533        0.075030
  |    34       34.042629       -0.042629        7.870884       15.913668       10.203894        0.054183
  |    35       41.908438        0.091562        8.257055       18.721309       14.852930        0.077144
  |    36       34.083971       -0.083971        7.895569       15.957024       10.187734        0.043644
  |    37       34.016628       -0.016628        7.881388       15.895052       10.192700        0.047488
  |    38       41.896114        0.103886        8.258947       18.714841       14.845959        0.076366
  |    39       34.068893       -0.068893        7.892895       15.951881       10.180751        0.043367
  |    40       34.032658       -0.032658        7.883621       15.910962       10.190866        0.047210
  |    41       41.899990        0.100010        8.193053       18.726231       14.896426        0.084279
  |    42       34.053666       -0.053666        7.889732       15.936396       10.182612        0.044926
  |    43       34.051000       -0.051000        7.885266       15.926528       10.191475        0.047731
  |    44       41.895411        0.104589        8.189546       18.722896       14.899248        0.083721
  |    45       34.053249       -0.053249        7.889693       15.934279       10.183966        0.045311
  |    46       34.049529       -0.049529        7.885303       15.922870       10.193125        0.048230
  |    47       41.889874        0.110126        8.255685       18.712626       14.845069        0.076495
  |    48       34.067032       -0.067032        7.892593       15.945092       10.184930        0.044418
  |    49       34.030565       -0.030565        7.883540       15.907154       10.192256        0.047615
  |    50       41.892404        0.107596        8.252081       18.710712       14.854581        0.075030
  |    51       34.067621       -0.067621        7.892382       15.950184       10.181482        0.043573
  |    52       34.032891       -0.032891        7.883783       15.911670       10.190322        0.047117
  |    53       41.924546        0.075454        8.196687       18.733114       14.909969        0.084776
  |    54       34.046864       -0.046864        7.888697       15.928987       10.184145        0.045035
  |    55       34.054245       -0.054245        7.886357       15.932589       10.188722        0.046577
  |    56       41.895533        0.104467        8.191494       18.723758       14.896983        0.083298
  |    57       34.052470       -0.052470        7.889496       15.937265       10.181043        0.044666
  |    58       34.050510       -0.050510        7.885907       15.928930       10.188776        0.046897
  |    59       41.896116        0.103884        8.192563       18.727176       14.891360        0.085018
  |    60       34.052462       -0.052462        7.889484       15.937272       10.181041        0.044666
  |    61       34.050541       -0.050541        7.885921       15.928947       10.188777        0.046896
  |    62       41.895215        0.104785        8.189349       18.722947       14.899198        0.083720
  |    63       34.053892       -0.053892        7.889802       15.936538       10.182624        0.044928
  |    64       34.051201       -0.051201        7.885340       15.926652       10.191477        0.047732
  |    65       41.924988        0.075012        8.199874       18.736442       14.902897        0.085775
  |    66       34.046026       -0.046026        7.888518       15.931340       10.181656        0.044512
  |    67       34.055981       -0.055981        7.887178       15.939378       10.184135        0.045290
  |    68       41.900770        0.099230        8.193733       18.726604       14.896377        0.084055
  |    69       34.049788       -0.049788        7.888907       15.935885       10.180510        0.044487
  |    70       34.051485       -0.051485        7.886963       15.932573       10.185960        0.045989
  |    71       41.901520        0.098480        8.195004       18.729747       14.890995        0.085774
  |    72       34.048822       -0.048822        7.888880       15.932668       10.182300        0.044974
  |    73       34.049497       -0.049497        7.886905       15.928165       10.187852        0.046576
  |
  | Total     2682.000000       -0.000000
 
  Summary of the per-atom spin analysis:
  |
  |  atom   spin      l=0         l=1         l=2         l=3
  |     1    0.000001    0.000000    0.000000    0.000001    0.000000
  |     2    0.000002    0.000000    0.000002   -0.000000   -0.000000
  |     3    0.000002    0.000000    0.000002   -0.000000   -0.000000
  |     4    0.000005    0.000000    0.000001    0.000004    0.000000
  |     5    0.000002    0.000000    0.000002   -0.000000   -0.000000
  |     6    0.000002    0.000000    0.000002   -0.000000   -0.000000
  |     7    0.000004    0.000000    0.000000    0.000003    0.000000
  |     8    0.000001    0.000000    0.000001   -0.000000   -0.000000
  |     9    0.000002    0.000000    0.000001   -0.000000   -0.000000
  |    10   -0.000001    0.000000   -0.000000   -0.000001    0.000000
  |    11    0.000001    0.000000    0.000001   -0.000000   -0.000000
  |    12    0.000001    0.000000    0.000001   -0.000000   -0.000000
  |    13    0.000009    0.000001    0.000001    0.000007   -0.000000
  |    14   -0.000001   -0.000000   -0.000001    0.000000    0.000000
  |    15   -0.000000   -0.000000   -0.000000    0.000000    0.000000
  |    16   -0.000000    0.000000   -0.000000   -0.000000    0.000000
  |    17    0.000000   -0.000000    0.000000   -0.000000   -0.000000
  |    18    0.000000   -0.000000    0.000000   -0.000000   -0.000000
  |    19   -0.000020   -0.000001   -0.000002   -0.000017    0.000000
  |    20   -0.000002   -0.000000   -0.000002    0.000000    0.000000
  |    21   -0.000002   -0.000000   -0.000002    0.000000    0.000000
  |    22   -0.000021   -0.000001   -0.000002   -0.000018    0.000000
  |    23   -0.000001   -0.000000   -0.000001    0.000000    0.000000
  |    24   -0.000005   -0.000000   -0.000000   -0.000005    0.000000
  |    25    0.000001    0.000000    0.000001   -0.000000   -0.000000
  |    26    0.000002    0.000000    0.000001   -0.000000   -0.000000
  |    27   -0.000001    0.000000   -0.000000   -0.000001    0.000000
  |    28    0.000001    0.000000    0.000001   -0.000000   -0.000000
  |    29    0.000001    0.000000    0.000001   -0.000000   -0.000000
  |    30   -0.000012   -0.000001   -0.000001   -0.000010    0.000000
  |    31   -0.000000   -0.000000   -0.000000    0.000000    0.000000
  |    32   -0.000000   -0.000000   -0.000000    0.000000    0.000000
  |    33    0.000001    0.000000   -0.000000    0.000001   -0.000000
  |    34   -0.000001   -0.000000   -0.000001    0.000000    0.000000
  |    35    0.000055    0.000003    0.000005    0.000047   -0.000000
  |    36   -0.000002   -0.000000   -0.000002    0.000000    0.000000
  |    37   -0.000002   -0.000000   -0.000002    0.000000    0.000000
  |    38   -0.000021   -0.000001   -0.000002   -0.000018    0.000000
  |    39    0.000002    0.000000    0.000002   -0.000000   -0.000000
  |    40    0.000002    0.000000    0.000002   -0.000000   -0.000000
  |    41    0.000004    0.000000    0.000000    0.000003    0.000000
  |    42   -0.000001   -0.000000   -0.000001    0.000000    0.000000
  |    43   -0.000001   -0.000000   -0.000001   -0.000000    0.000000
  |    44    0.000000    0.000000    0.000000   -0.000000   -0.000000
  |    45    0.000000   -0.000000    0.000000   -0.000000   -0.000000
  |    46   -0.000000   -0.000000   -0.000000   -0.000000    0.000000
  |    47    0.000017    0.000001    0.000002    0.000014    0.000000
  |    48   -0.000000   -0.000000   -0.000000    0.000000    0.000000
  |    49   -0.000000   -0.000000   -0.000000    0.000000    0.000000
  |    50    0.000001    0.000000    0.000000    0.000001   -0.000000
  |    51    0.000000   -0.000000    0.000000   -0.000000   -0.000000
  |    52    0.000000   -0.000000    0.000000   -0.000000   -0.000000
  |    53   -0.000020   -0.000001   -0.000002   -0.000017    0.000000
  |    54    0.000002    0.000000    0.000002   -0.000000   -0.000000
  |    55    0.000002    0.000000    0.000002   -0.000000   -0.000000
  |    56    0.000005    0.000000    0.000001    0.000004    0.000000
  |    57   -0.000001   -0.000000   -0.000001    0.000000    0.000000
  |    58   -0.000001   -0.000000   -0.000001    0.000000    0.000000
  |    59    0.000003    0.000000    0.000000    0.000003   -0.000000
  |    60   -0.000001   -0.000000   -0.000001    0.000000    0.000000
  |    61   -0.000001   -0.000000   -0.000001    0.000000    0.000000
  |    62   -0.000000    0.000000    0.000000   -0.000000   -0.000000
  |    63   -0.000001   -0.000000   -0.000001    0.000000    0.000000
  |    64   -0.000001   -0.000000   -0.000001   -0.000000    0.000000
  |    65   -0.000012   -0.000001   -0.000001   -0.000010    0.000000
  |    66    0.000001    0.000000    0.000001   -0.000000   -0.000000
  |    67    0.000001    0.000000    0.000001   -0.000000   -0.000000
  |    68   -0.000000    0.000000   -0.000000   -0.000000    0.000000
  |    69   -0.000001   -0.000000   -0.000001    0.000000    0.000000
  |    70   -0.000000   -0.000000   -0.000000    0.000000    0.000000
  |    71    0.000001    0.000000    0.000000    0.000001    0.000000
  |    72   -0.000001   -0.000000   -0.000001    0.000000    0.000000
  |    73   -0.000001   -0.000000   -0.000001    0.000000    0.000000
  |
  | Total    0.000000
 
  Calculating angular momentum projected density of states ...
  | Chemical potential is  -5.143715 eV.
  | writing   projected DOS (shifted by the chemical potential) for species Se to file Se_l_proj_dos_tetrahedron.dat.
  | writing   projected DOS (raw data) for species Se to file Se_l_proj_dos_tetrahedron_raw.dat.
  | writing   projected DOS (shifted by the chemical potential) for species S to file S_l_proj_dos_tetrahedron.dat.
  | writing   projected DOS (raw data) for species S to file S_l_proj_dos_tetrahedron_raw.dat.
  | writing   projected DOS (shifted by the chemical potential) for species Mo to file Mo_l_proj_dos_tetrahedron.dat.
  | writing   projected DOS (raw data) for species Mo to file Mo_l_proj_dos_tetrahedron_raw.dat.
  | writing   projected DOS (shifted by the chemical potential) for species W to file W_l_proj_dos_tetrahedron.dat.
  | writing   projected DOS (raw data) for species W to file W_l_proj_dos_tetrahedron_raw.dat.

  Mulliken analysis                                       :  max(cpu_time)    wall_clock(cpu1)
  | Time for Mulliken analysis (scalar relativistic)      :          0.728               0.790
  | Time for Mulliken analysis (spin-orbit coupled)       :          1.849               1.858
  | Total time for Mulliken analysis                      :          2.577               2.648
------------------------------------------------------------

------------------------------------------------------------------------------
  Final output of selected total energy values:

  The following output summarizes some interesting total energy values
  at the end of a run (AFTER all relaxation, molecular dynamics, etc.).

  | Total energy of the DFT / Hartree-Fock s.c.f. calculation      :       -5975290.250629720 eV
  | Final zero-broadening corrected energy (caution - metals only) :       -5975290.250629720 eV
  | Total energy after non-SC SOC correction (DO NOT USE)          :       -5975294.187732333 eV
  | For reference only, the value of 1 Hartree used in FHI-aims is :             27.211384500 eV
  | For reference only, the overall average (free atom contribution
  | + realspace contribution) of the electrostatic potential after
  | s.c.f. convergence is                                          :             -1.200084850 eV

  Before relying on these values, please be sure to understand exactly which
  total energy value is referred to by a given number. Different objects may
  all carry the same name 'total energy'. Definitions:

  Total energy of the DFT / Hartree-Fock s.c.f. calculation:
  | Note that this energy does not include ANY quantities calculated after the
  | s.c.f. cycle, in particular not ANY RPA, MP2, etc. many-body perturbation terms.

  Final zero-broadening corrected energy:
  | For metallic systems only, a broadening of the occupation numbers at the Fermi
  | level can be extrapolated back to zero broadening by an electron-gas inspired
  | formula. For all systems that are not real metals, this value can be
  | meaningless and should be avoided.

------------------------------------------------------------------------------
  Methods described in the following list of references were used in this FHI-aims run.
  If you publish the results, please make sure to cite these reference if they apply.
  FHI-aims is an academic code, and for our developers (often, Ph.D. students
  and postdocs), scientific credit in the community is essential.
  Thank you for helping us!

  For any use of FHI-aims, please cite:

    Volker Blum, Ralf Gehrke, Felix Hanke, Paula Havu, Ville Havu,
    Xinguo Ren, Karsten Reuter, and Matthias Scheffler
    'Ab initio molecular simulations with numeric atom-centered orbitals'
    Computer Physics Communications 180, 2175-2196 (2009)
    http://doi.org/10.1016/j.cpc.2009.06.022


  For Hartree-Fock, hybrid functionals, or many-body perturbation theory used in your run, please cite:

    Xinguo Ren, Patrick Rinke, Volker Blum, Juergen Wieferink, Alex Tkatchenko,
    Andrea Sanfilippo, Karsten Reuter, and Matthias Scheffler,
    'Resolution-of-identity approach to Hartree-Fock, hybrid density functionals,
    RPA, MP2, and GW with numeric atom-centered orbital basis functions'
    New Journal of Physics 14, 053020 (2012).
    http://doi.org/10.1088/1367-2630/14/5/053020


  The provided symmetry information was generated with SPGlib:

    Atsushi Togo, Yusuke Seto, Dimitar Pashov
    SPGlib 1.7.3 obtained from http://spglib.sourceforge.net
    Copyright (C) 2008 Atsushi Togo


  For second-variational spin-orbit coupling used in your run, please cite:

    William P. Huhn and Volker Blum,
    'One-hundred-three compound band-structure benchmark of post-self-consistent'
    'spin-orbit coupling treatments in density functional theory'
    Phys. Rev. Materials 1, 033803 (2017).


  The ELSI infrastructure was used in your run to solve the Kohn-Sham electronic structure.
  Please check out http://elsi-interchange.org to learn more.
  If scalability is important for your project, please acknowledge ELSI by citing:

    V. W-z. Yu, F. Corsetti, A. Garcia, W. P. Huhn, M. Jacquelin, W. Jia,
    B. Lange, L. Lin, J. Lu, W. Mi, A. Seifitokaldani, A. Vazquez-Mayagoitia,
    C. Yang, H. Yang, and V. Blum
    'ELSI: A unified software interface for Kohn-Sham electronic structure solvers'
    Computer Physics Communications 222, 267-285 (2018).
    http://doi.org/10.1016/j.cpc.2017.09.007


  For the real-space grid partitioning and parallelization used in this calculation, please cite:

    Ville Havu, Volker Blum, Paula Havu, and Matthias Scheffler,
    'Efficient O(N) integration for all-electron electronic structure calculation'
    'using numerically tabulated basis functions'
    Journal of Computational Physics 228, 8367-8379 (2009).
    http://doi.org/10.1016/j.jcp.2009.08.008


  The high-level electronic structure method used in your calculation
  employed our efficient localized resolution of identity for the Coulomb operator.
  Some calculations, especially large-scale hybrid density functional theory,
  are only possible thanks to this development. For this feature, please cite:

    Arvid Ihrig, Juergen Wieferink, Igor Ying Zhang, Matti Ropo, Xinguo Ren,
    Patrick Rinke, Matthias Scheffler, and Volker Blum,
    'Accurate localized resolution of identity approach for linear-scaling
    hybrid density functionals and for many-body perturbation theory'
    New Journal of Physics 117, 093020 (2015).
    http://doi.org/10.1088/1367-2630/17/9/093020

  Of course, there are many other important community references, e.g., those cited in the
  above references. Our list is limited to references that describe implementations in the
  FHI-aims code. The reason is purely practical (length of this list) - please credit others as well.

------------------------------------------------------------
          Leaving FHI-aims.
          Date     :  20220930, Time     :  155503.940

          Computational steps:
          | Number of self-consistency cycles          :           37
          | Number of SCF (re)initializations          :            1

          Detailed time accounting                     :  max(cpu_time)    wall_clock(cpu1)
          | Total time                                  :     3535.134 s        3535.201 s
          | Preparation time                            :        1.349 s           1.349 s
          | Boundary condition initalization            :        0.873 s           0.874 s
          | Grid partitioning                           :        2.675 s           2.675 s
          | Preloading free-atom quantities on grid     :        1.872 s           1.873 s
          | Free-atom superposition energy              :        0.053 s           0.053 s
          | Total time for integrations                 :       51.532 s          51.535 s
          | Product basis setup: Total time             :      160.071 s         160.077 s
          | Total time evaluating exchange matrix       :     2980.599 s        2979.575 s
          | Total time for solution of K.-S. equations  :      157.955 s         157.957 s
          | Total time for density update               :      110.712 s         110.715 s
          | Total time for mixing                       :        0.309 s           0.306 s
          | Total time for Hartree multipole update     :        0.460 s           0.462 s
          | Total time for Hartree multipole sum        :       45.849 s          45.846 s
          | Total time for total energy evaluation      :        0.076 s           0.091 s
          | Total time for scaled ZORA corrections      :        0.000 s           0.000 s
          | Total time for vdW correction               :        4.616 s           4.617 s
          | Total time for perturbative SOC             :       14.170 s          14.170 s
          | Total time for Mulliken analysis            :        2.613 s           2.648 s

          Partial memory accounting:
          | Residual value for overall tracked memory usage across tasks:     0.000000 MB (should be 0.000000 MB)
          | Peak values for overall tracked memory usage:
          |   Minimum:      325.055 MB (on task 277 after allocating potential_shell)
          |   Maximum:      470.279 MB (on task 270 after allocating potential_shell)
          |   Average:      374.605 MB
          | Largest tracked array allocation:
          |   Minimum:       77.157 MB (soc_matrix on task   4)
          |   Maximum:      205.855 MB (ovlp3fn for atom on task 259)
          |   Average:      115.106 MB
          Note:  These values currently only include a subset of arrays which are explicitly tracked.
          The "true" memory usage will be greater.

          Have a nice day.
------------------------------------------------------------
