------------------------------------------------------------
          Invoking FHI-aims ...

          When using FHI-aims, please cite the following reference:

            Volker Blum, Ralf Gehrke, Felix Hanke, Paula Havu,
            Ville Havu, Xinguo Ren, Karsten Reuter, and Matthias Scheffler,
            'Ab Initio Molecular Simulations with Numeric Atom-Centered Orbitals',
            Computer Physics Communications 180, 2175-2196 (2009)

          In addition, many other developments in FHI-aims are likely important for
          your particular application. A partial list of references is given at the end of
          this file. Thank you for giving credit to the authors of these developments.

          For any questions about FHI-aims, please visit our slack channel at

            https://fhi-aims.slack.com

          and our main development and support site at

            https://aims-git.rz-berlin.mpg.de .

          The latter site, in particular, has a wiki to collect information, as well
          as an issue tracker to log discussions, suggest improvements, and report issues
          or bugs. https://aims-git.rz-berlin.mpg.de is also the main development site
          of the project and all new and updated code versions can be obtained there.
          Please send an email to aims-coordinators@fhi-berlin.mpg.de and we will add
          you to these sites. They are for you and everyone is welcome there.

------------------------------------------------------------



  Date     :  20220930, Time     :  124732.105
  Time zero on CPU 1             :   0.337011000000000E+00  s.
  Internal wall clock time zero  :           433774052.105  s.

  FHI-aims created a unique identifier for this run for later identification
  aims_uuid : DAD0F8D5-9F64-4E88-A608-98B42B07FF41

  Build configuration of the current instance of FHI-aims
  -------------------------------------------------------
  FHI-aims version      : 220117
  Commit number         : 0c0e6afe2
  CMake host system     : Linux-5.3.18-24.99-default
  CMake version         : 3.22.0
  Fortran compiler      : /mpcdf/soft/SLE_15/packages/x86_64/intel_oneapi/2021.4/mpi/2021.4.0/bin/mpiifort (Intel) version 2021.4.0.20210910
  Fortran compiler flags: -O3 -ip -fp-model precise
  C compiler            : /mpcdf/soft/SLE_15/packages/x86_64/intel/2021.4.0/bin/icc (Intel) version 2021.4.0.20210910
  C compiler flags      : -O3 -ip -fp-model precise
  C++ compiler          : /mpcdf/soft/SLE_15/packages/x86_64/intel/2021.4.0/bin/icpc (Intel) version 2021.4.0.20210910
  C++ compiler flags    : -O3 -ip -fp-model precise
  Using MPI
  Using ScaLAPACK
  Using LibXC
  Using i-PI
  Using RLSY
  Linking against: /mpcdf/soft/SLE_15/packages/x86_64/intel_oneapi/2021.4/mkl/latest/lib/intel64/libmkl_intel_lp64.so
                   /mpcdf/soft/SLE_15/packages/x86_64/intel_oneapi/2021.4/mkl/latest/lib/intel64/libmkl_sequential.so
                   /mpcdf/soft/SLE_15/packages/x86_64/intel_oneapi/2021.4/mkl/latest/lib/intel64/libmkl_core.so
                   /mpcdf/soft/SLE_15/packages/x86_64/intel_oneapi/2021.4/mkl/latest/lib/intel64/libmkl_blacs_intelmpi_lp64.so
                   /mpcdf/soft/SLE_15/packages/x86_64/intel_oneapi/2021.4/mkl/latest/lib/intel64/libmkl_scalapack_lp64.so

  Using      288 parallel tasks.
  Task        0 on host ravg1134 reporting.
  Task        1 on host ravg1134 reporting.
  Task        2 on host ravg1134 reporting.
  Task        3 on host ravg1134 reporting.
  Task        4 on host ravg1134 reporting.
  Task        5 on host ravg1134 reporting.
  Task        6 on host ravg1134 reporting.
  Task        7 on host ravg1134 reporting.
  Task        8 on host ravg1134 reporting.
  Task        9 on host ravg1134 reporting.
  Task       10 on host ravg1134 reporting.
  Task       11 on host ravg1134 reporting.
  Task       12 on host ravg1134 reporting.
  Task       13 on host ravg1134 reporting.
  Task       14 on host ravg1134 reporting.
  Task       15 on host ravg1134 reporting.
  Task       16 on host ravg1134 reporting.
  Task       17 on host ravg1134 reporting.
  Task       18 on host ravg1134 reporting.
  Task       19 on host ravg1134 reporting.
  Task       20 on host ravg1134 reporting.
  Task       21 on host ravg1134 reporting.
  Task       22 on host ravg1134 reporting.
  Task       23 on host ravg1134 reporting.
  Task       24 on host ravg1134 reporting.
  Task       25 on host ravg1134 reporting.
  Task       26 on host ravg1134 reporting.
  Task       27 on host ravg1134 reporting.
  Task       28 on host ravg1134 reporting.
  Task       29 on host ravg1134 reporting.
  Task       30 on host ravg1134 reporting.
  Task       31 on host ravg1134 reporting.
  Task       32 on host ravg1134 reporting.
  Task       33 on host ravg1134 reporting.
  Task       34 on host ravg1134 reporting.
  Task       35 on host ravg1134 reporting.
  Task       36 on host ravg1134 reporting.
  Task       37 on host ravg1134 reporting.
  Task       38 on host ravg1134 reporting.
  Task       39 on host ravg1134 reporting.
  Task       40 on host ravg1134 reporting.
  Task       41 on host ravg1134 reporting.
  Task       42 on host ravg1134 reporting.
  Task       43 on host ravg1134 reporting.
  Task       44 on host ravg1134 reporting.
  Task       45 on host ravg1134 reporting.
  Task       46 on host ravg1134 reporting.
  Task       47 on host ravg1134 reporting.
  Task       48 on host ravg1134 reporting.
  Task       49 on host ravg1134 reporting.
  Task       50 on host ravg1134 reporting.
  Task       51 on host ravg1134 reporting.
  Task       52 on host ravg1134 reporting.
  Task       53 on host ravg1134 reporting.
  Task       54 on host ravg1134 reporting.
  Task       55 on host ravg1134 reporting.
  Task       56 on host ravg1134 reporting.
  Task       57 on host ravg1134 reporting.
  Task       58 on host ravg1134 reporting.
  Task       59 on host ravg1134 reporting.
  Task       60 on host ravg1134 reporting.
  Task       61 on host ravg1134 reporting.
  Task       62 on host ravg1134 reporting.
  Task       63 on host ravg1134 reporting.
  Task       64 on host ravg1134 reporting.
  Task       65 on host ravg1134 reporting.
  Task       66 on host ravg1134 reporting.
  Task       67 on host ravg1134 reporting.
  Task       68 on host ravg1134 reporting.
  Task       69 on host ravg1134 reporting.
  Task       70 on host ravg1134 reporting.
  Task       71 on host ravg1134 reporting.
  Task       72 on host ravg1135 reporting.
  Task       73 on host ravg1135 reporting.
  Task       74 on host ravg1135 reporting.
  Task       75 on host ravg1135 reporting.
  Task       76 on host ravg1135 reporting.
  Task       77 on host ravg1135 reporting.
  Task       78 on host ravg1135 reporting.
  Task       79 on host ravg1135 reporting.
  Task       80 on host ravg1135 reporting.
  Task       81 on host ravg1135 reporting.
  Task       82 on host ravg1135 reporting.
  Task       83 on host ravg1135 reporting.
  Task       84 on host ravg1135 reporting.
  Task       85 on host ravg1135 reporting.
  Task       86 on host ravg1135 reporting.
  Task       87 on host ravg1135 reporting.
  Task       88 on host ravg1135 reporting.
  Task       89 on host ravg1135 reporting.
  Task       90 on host ravg1135 reporting.
  Task       91 on host ravg1135 reporting.
  Task       92 on host ravg1135 reporting.
  Task       93 on host ravg1135 reporting.
  Task       94 on host ravg1135 reporting.
  Task       95 on host ravg1135 reporting.
  Task       96 on host ravg1135 reporting.
  Task       97 on host ravg1135 reporting.
  Task       98 on host ravg1135 reporting.
  Task       99 on host ravg1135 reporting.
  Task      100 on host ravg1135 reporting.
  Task      101 on host ravg1135 reporting.
  Task      102 on host ravg1135 reporting.
  Task      103 on host ravg1135 reporting.
  Task      104 on host ravg1135 reporting.
  Task      105 on host ravg1135 reporting.
  Task      106 on host ravg1135 reporting.
  Task      107 on host ravg1135 reporting.
  Task      108 on host ravg1135 reporting.
  Task      109 on host ravg1135 reporting.
  Task      110 on host ravg1135 reporting.
  Task      111 on host ravg1135 reporting.
  Task      112 on host ravg1135 reporting.
  Task      113 on host ravg1135 reporting.
  Task      114 on host ravg1135 reporting.
  Task      115 on host ravg1135 reporting.
  Task      116 on host ravg1135 reporting.
  Task      117 on host ravg1135 reporting.
  Task      118 on host ravg1135 reporting.
  Task      119 on host ravg1135 reporting.
  Task      120 on host ravg1135 reporting.
  Task      121 on host ravg1135 reporting.
  Task      122 on host ravg1135 reporting.
  Task      123 on host ravg1135 reporting.
  Task      124 on host ravg1135 reporting.
  Task      125 on host ravg1135 reporting.
  Task      126 on host ravg1135 reporting.
  Task      127 on host ravg1135 reporting.
  Task      128 on host ravg1135 reporting.
  Task      129 on host ravg1135 reporting.
  Task      130 on host ravg1135 reporting.
  Task      131 on host ravg1135 reporting.
  Task      132 on host ravg1135 reporting.
  Task      133 on host ravg1135 reporting.
  Task      134 on host ravg1135 reporting.
  Task      135 on host ravg1135 reporting.
  Task      136 on host ravg1135 reporting.
  Task      137 on host ravg1135 reporting.
  Task      138 on host ravg1135 reporting.
  Task      139 on host ravg1135 reporting.
  Task      140 on host ravg1135 reporting.
  Task      141 on host ravg1135 reporting.
  Task      142 on host ravg1135 reporting.
  Task      143 on host ravg1135 reporting.
  Task      144 on host ravg1136 reporting.
  Task      145 on host ravg1136 reporting.
  Task      146 on host ravg1136 reporting.
  Task      147 on host ravg1136 reporting.
  Task      148 on host ravg1136 reporting.
  Task      149 on host ravg1136 reporting.
  Task      150 on host ravg1136 reporting.
  Task      151 on host ravg1136 reporting.
  Task      152 on host ravg1136 reporting.
  Task      153 on host ravg1136 reporting.
  Task      154 on host ravg1136 reporting.
  Task      155 on host ravg1136 reporting.
  Task      156 on host ravg1136 reporting.
  Task      157 on host ravg1136 reporting.
  Task      158 on host ravg1136 reporting.
  Task      159 on host ravg1136 reporting.
  Task      160 on host ravg1136 reporting.
  Task      161 on host ravg1136 reporting.
  Task      162 on host ravg1136 reporting.
  Task      163 on host ravg1136 reporting.
  Task      164 on host ravg1136 reporting.
  Task      165 on host ravg1136 reporting.
  Task      166 on host ravg1136 reporting.
  Task      167 on host ravg1136 reporting.
  Task      168 on host ravg1136 reporting.
  Task      169 on host ravg1136 reporting.
  Task      170 on host ravg1136 reporting.
  Task      171 on host ravg1136 reporting.
  Task      172 on host ravg1136 reporting.
  Task      173 on host ravg1136 reporting.
  Task      174 on host ravg1136 reporting.
  Task      175 on host ravg1136 reporting.
  Task      176 on host ravg1136 reporting.
  Task      177 on host ravg1136 reporting.
  Task      178 on host ravg1136 reporting.
  Task      179 on host ravg1136 reporting.
  Task      180 on host ravg1136 reporting.
  Task      181 on host ravg1136 reporting.
  Task      182 on host ravg1136 reporting.
  Task      183 on host ravg1136 reporting.
  Task      184 on host ravg1136 reporting.
  Task      185 on host ravg1136 reporting.
  Task      186 on host ravg1136 reporting.
  Task      187 on host ravg1136 reporting.
  Task      188 on host ravg1136 reporting.
  Task      189 on host ravg1136 reporting.
  Task      190 on host ravg1136 reporting.
  Task      191 on host ravg1136 reporting.
  Task      192 on host ravg1136 reporting.
  Task      193 on host ravg1136 reporting.
  Task      194 on host ravg1136 reporting.
  Task      195 on host ravg1136 reporting.
  Task      196 on host ravg1136 reporting.
  Task      197 on host ravg1136 reporting.
  Task      198 on host ravg1136 reporting.
  Task      199 on host ravg1136 reporting.
  Task      200 on host ravg1136 reporting.
  Task      201 on host ravg1136 reporting.
  Task      202 on host ravg1136 reporting.
  Task      203 on host ravg1136 reporting.
  Task      204 on host ravg1136 reporting.
  Task      205 on host ravg1136 reporting.
  Task      206 on host ravg1136 reporting.
  Task      207 on host ravg1136 reporting.
  Task      208 on host ravg1136 reporting.
  Task      209 on host ravg1136 reporting.
  Task      210 on host ravg1136 reporting.
  Task      211 on host ravg1136 reporting.
  Task      212 on host ravg1136 reporting.
  Task      213 on host ravg1136 reporting.
  Task      214 on host ravg1136 reporting.
  Task      215 on host ravg1136 reporting.
  Task      216 on host ravg1139 reporting.
  Task      217 on host ravg1139 reporting.
  Task      218 on host ravg1139 reporting.
  Task      219 on host ravg1139 reporting.
  Task      220 on host ravg1139 reporting.
  Task      221 on host ravg1139 reporting.
  Task      222 on host ravg1139 reporting.
  Task      223 on host ravg1139 reporting.
  Task      224 on host ravg1139 reporting.
  Task      225 on host ravg1139 reporting.
  Task      226 on host ravg1139 reporting.
  Task      227 on host ravg1139 reporting.
  Task      228 on host ravg1139 reporting.
  Task      229 on host ravg1139 reporting.
  Task      230 on host ravg1139 reporting.
  Task      231 on host ravg1139 reporting.
  Task      232 on host ravg1139 reporting.
  Task      233 on host ravg1139 reporting.
  Task      234 on host ravg1139 reporting.
  Task      235 on host ravg1139 reporting.
  Task      236 on host ravg1139 reporting.
  Task      237 on host ravg1139 reporting.
  Task      238 on host ravg1139 reporting.
  Task      239 on host ravg1139 reporting.
  Task      240 on host ravg1139 reporting.
  Task      241 on host ravg1139 reporting.
  Task      242 on host ravg1139 reporting.
  Task      243 on host ravg1139 reporting.
  Task      244 on host ravg1139 reporting.
  Task      245 on host ravg1139 reporting.
  Task      246 on host ravg1139 reporting.
  Task      247 on host ravg1139 reporting.
  Task      248 on host ravg1139 reporting.
  Task      249 on host ravg1139 reporting.
  Task      250 on host ravg1139 reporting.
  Task      251 on host ravg1139 reporting.
  Task      252 on host ravg1139 reporting.
  Task      253 on host ravg1139 reporting.
  Task      254 on host ravg1139 reporting.
  Task      255 on host ravg1139 reporting.
  Task      256 on host ravg1139 reporting.
  Task      257 on host ravg1139 reporting.
  Task      258 on host ravg1139 reporting.
  Task      259 on host ravg1139 reporting.
  Task      260 on host ravg1139 reporting.
  Task      261 on host ravg1139 reporting.
  Task      262 on host ravg1139 reporting.
  Task      263 on host ravg1139 reporting.
  Task      264 on host ravg1139 reporting.
  Task      265 on host ravg1139 reporting.
  Task      266 on host ravg1139 reporting.
  Task      267 on host ravg1139 reporting.
  Task      268 on host ravg1139 reporting.
  Task      269 on host ravg1139 reporting.
  Task      270 on host ravg1139 reporting.
  Task      271 on host ravg1139 reporting.
  Task      272 on host ravg1139 reporting.
  Task      273 on host ravg1139 reporting.
  Task      274 on host ravg1139 reporting.
  Task      275 on host ravg1139 reporting.
  Task      276 on host ravg1139 reporting.
  Task      277 on host ravg1139 reporting.
  Task      278 on host ravg1139 reporting.
  Task      279 on host ravg1139 reporting.
  Task      280 on host ravg1139 reporting.
  Task      281 on host ravg1139 reporting.
  Task      282 on host ravg1139 reporting.
  Task      283 on host ravg1139 reporting.
  Task      284 on host ravg1139 reporting.
  Task      285 on host ravg1139 reporting.
  Task      286 on host ravg1139 reporting.
  Task      287 on host ravg1139 reporting.

  Performing system and environment tests:
  | Environment variable OMP_NUM_THREADS correctly set to 1.
  | Checking for ScaLAPACK...
  | Testing pdtran()...
  | All pdtran() tests passed.

  Obtaining array dimensions for all initial allocations:
  
  -----------------------------------------------------------------------
  Parsing control.in (first pass over file, find array dimensions only).
  The contents of control.in will be repeated verbatim below
  unless switched off by setting 'verbatim_writeout .false.' .
  in the first line of control.in .
  -----------------------------------------------------------------------
  
    ##### Physical settings  ################
    xc                 pbe
    spin               collinear
    default_initial_moment 1
    charge      0.0
    relativistic       atomic_zora scalar
    #elsi_restart read
    # SCF settings
    use_symmetric_forces .true.
  #  relax_geometry trm 1E-3
   output dos_tetrahedron -10 0 2001 0.1
  output species_proj_dos_tetrahedron -10 0 2001 0.1
  
    # k-grid settings  (to be adjusted)
    k_grid  4 4 1
    #empty_states 8
    use_dipole_correction
    many_body_dispersion_nl    beta=0.81
  ################################################################################
  #
  #  FHI-aims code project
  # Volker Blum, Fritz Haber Institute Berlin, 2009
  #
  #  Suggested "tight" defaults for S atom (to be pasted into control.in file)
  #
  #  Revised Jan 04, 2011, following tests (SiC) done by Lydia Nemec:
  #     d and g functions of tier 2 now enabled by default.
  #
  ################################################################################
    species        S
  #     global species definitions
      nucleus             16
      mass                32.065
  #
      l_hartree           6
  #
      cut_pot             4.0          2.0  1.0
      basis_dep_cutoff    1e-4
  #
      radial_base         44 7.0
      radial_multiplier   2
      angular_grids       specified
        division   0.4665  110
        division   0.5810  194
        division   0.7139  302
        division   0.8274  434
  #      division   0.9105  590
  #      division   1.0975  770
  #      division   1.2028  974
  #      outer_grid  974
        outer_grid  434
  ################################################################################
  #
  #  Definition of "minimal" basis
  #
  ################################################################################
  #     valence basis states
      valence      3  s   2.
      valence      3  p   4.
  #     ion occupancy
      ion_occ      3  s   1.
      ion_occ      3  p   3.
  ################################################################################
  #
  #  Suggested additional basis functions. For production calculations,
  #  uncomment them one after another (the most important basis functions are
  #  listed first).
  #
  #  Constructed for dimers: 1.6 A, 1.9 A, 2.5 A, 3.25 A, 4.0 A
  #
  ################################################################################
  #  "First tier" - improvements: -652.81 meV to -45.53 meV
       ionic 3 d auto
       hydro 2 p 1.8
       hydro 4 f 7
       ionic 3 s auto
  #  "Second tier" - improvements: -30.20 meV to -1.74 meV
       hydro 4 d 6.2
       hydro 5 g 10.8
  #     hydro 4 p 4.9
  #     hydro 5 f 10
  #     hydro 1 s 0.8
  #  "Third tier" - improvements: -1.04 meV to -0.20 meV
  #     hydro 3 d 3.9
  #     hydro 3 d 2.7
  #     hydro 5 g 12
  #     hydro 4 p 10.4
  #     hydro 5 f 12.4
  #     hydro 2 s 1.9
  #  "Fourth tier" - improvements: -0.35 meV to -0.06 meV
  #     hydro 4 d 10.4
  #     hydro 4 p 7.2
  #     hydro 4 d 10
  #     hydro 5 g 19.2
  #     hydro 4 s 12
  
  ################################################################################
  #
  # For methods that use the localized form of the "resolution of identity" for
  # the two-electron Coulomb operator (RI_method LVL), particularly Hartree-Fock and
  # hybrid density functional calculations, the highest accuracy can be obtained by
  # uncommenting the line beginning with "for_aux"  below, thus adding an extra g radial
  # function to the construction of the product basis set for the expansion.
  # See Ref. New J. Phys. 17, 093020 (2015) for more information, particularly Figs. 1 and 6.
  #
  ################################################################################
  #
  # for_aux hydro 5 g 6.0
  ################################################################################
  #
  #  FHI-aims code project
  # Volker Blum, Fritz Haber Institute Berlin, 2009
  #
  #  Suggested "tight" defaults for Mo atom (to be pasted into control.in file)
  #
  ################################################################################
    species        Mo
  #     global species definitions
      nucleus             42
      mass                95.94
  #
      l_hartree           6
  #
      cut_pot             4.0  2.0  1.0
      basis_dep_cutoff    1e-4
  #
      radial_base         59 7.0
      radial_multiplier   2
      angular_grids specified
        division   0.3117   50
        division   0.6750  110
        division   1.0351  194
        division   1.2073  302
        division   1.6402  434
  #      division   1.9185  590
  #      division   2.0237  770
  #      division   2.0980  974
  #      division   2.7972 1202
  #      outer_grid  974
        outer_grid  434
  ################################################################################
  #
  #  Definition of "minimal" basis
  #
  ################################################################################
  #     valence basis states
      valence      5  s   1.
      valence      4  p   6.
      valence      4  d   5.
  #     ion occupancy
      ion_occ     5  s   0.
      ion_occ     4  p   6.
      ion_occ     4  d   4.
  ################################################################################
  #
  #  Suggested additional basis functions. For production calculations,
  #  uncomment them one after another (the most important basis functions are
  #  listed first).
  #
  #  Constructed for dimers: 1.675 A, 1.9 A, 2.375 A, 3.00 A, 4.00 A
  #
  ################################################################################
  #  "First tier"  - max. impr. -711.23  meV, min. impr. -21.07 meV
       hydro 4 f 8.4
       hydro 3 d 2.8
       ionic 5 p auto
       hydro 5 g 12
       ionic 5 s auto
  #  "Second tier" - max. impr. -39.38  meV, min. impr. -2.68 meV
  #     hydro 4 f 12.4
  #     hydro 3 d 3.3
  #     hydro 6 h 17.2
  #     hydro 4 f 7.6
  #     hydro 3 p 3.0
  #     hydro 1 s 0.65
  #  "Third tier"  - max. impr. -5.50 meV, min. impr. -0.47 meV
  #     hydro 4 f 29.2
  #     hydro 5 g 11.2
  #     hydro 3 d 6.8
  #     hydro 6 h 14.8
  #     hydro 2 p 2.3
  #     hydro 4 s 3.8
  #  "Fourth tier"  - max. impr. -0.58 meV, min. impr. -0.19 meV
  #     hydro 5 f 6.8
  #     hydro 5 d 14.8
  #     hydro 6 s 7.8
  #     hydro 5 g 20.8
  #     hydro 5 d 10.4
  #     hydro 5 p 9.8
  #  Further functions - -0.17 meV and below
  #     hydro 5 d 3.2
  ################################################################################
  #
  #  FHI-aims code project
  # Volker Blum, Fritz Haber Institute Berlin, 2009
  #
  #  Suggested "tight" defaults for W atom (to be pasted into control.in file)
  #
  ################################################################################
    species          W
  #     global species definitions
      nucleus        74
      mass           183.84
  #
      l_hartree      6
  #
      cut_pot        4.0  2.0  1.0
      basis_dep_cutoff    1e-4
  #
      radial_base    71  7.0
      radial_multiplier  2
      angular_grids specified
        division   0.2901   50
        division   0.6986  110
        division   1.0528  194
        division   1.2659  302
        division   1.5223  434
  #      division   1.8111  590
  #      division   2.0105  770
  #      division   2.0413  974
  #      division   2.8804 1202
  #      outer_grid  974
        outer_grid  434
  ################################################################################
  #
  #  Definition of "minimal" basis
  #
  ################################################################################
  #     valence basis states
      valence      6  s   2.
      valence      5  p   6.
      valence      5  d   4.
      valence      4  f  14.
  #     ion occupancy
      ion_occ      6  s   1.
      ion_occ      5  p   6.
      ion_occ      5  d   3.
      ion_occ      4  f  14.
  ################################################################################
  #
  #  Suggested additional basis functions. For production calculations,
  #  uncomment them one after another (the most important basis functions are
  #  listed first).
  #
  #  Constructed for dimers: 1.775, 1.99, 2.50, 3.25, 4.50 AA
  #
  ################################################################################
  #
  #  "First tier" - improvements: -603.77 meV to -28.99 meV
       hydro 4 f 7.8
       hydro 4 d 5.8
       ionic 6 p auto
       hydro 5 g 12.4
       ionic 6 s auto
  #  "Second tier" - improvements: -28.30 meV to -1.31 meV
  #     hydro 6 h 16.8
  #     ionic 5 d auto
  #     hydro 4 f 8.6
  #     hydro 5 g 16.8
  #     hydro 5 d 8.4
  #     hydro 3 p 3.3
  #     hydro 1 s 0.55
  #  "Third tier" - max. impr. -1.79 meV, min. impr. -0.26 meV
  #     hydro 5 f 10.8
  #     hydro 5 g 34.4
  #     hydro 6 h 20.8
  #     hydro 5 g 12.8
  #     hydro 2 p 1.6
  #     hydro 4 s 4.7
  #     hydro 6 d 18.4
  #  "Fourth tier" -0.46 max. impr. - meV, min. impr. -0.09 meV
  #     hydro 6 h 21.6
  #     hydro 5 f 22.4
  #     hydro 4 f 4
  #     hydro 5 p 9.6
  #     hydro 6 d 17.2
  #     hydro 3 p 5.2
  #     hydro 5 g 4.7
  #     hydro 6 s 7.6
  ################################################################################
  #
  #  FHI-aims code project
  # Volker Blum, Fritz Haber Institute Berlin, 2009
  #
  #  Suggested "tight" defaults for Se atom (to be pasted into control.in file)
  #
  ################################################################################
    species        Se
  #     global species definitions
      nucleus             34
      mass                78.96
  #
      l_hartree           6
  #
      cut_pot             4.0          2.0  1.0
      basis_dep_cutoff    1e-4
  #
      radial_base         55 7.0
      radial_multiplier   2
      angular_grids       specified
        division   0.0830  110
        division   0.1357  194
        division   0.7377  302
        division   0.8610  434
  #      division   0.9640  590
  #      division   1.0773  770
  #      division   2.5539  974
  #      outer_grid  974
        outer_grid  434
  ################################################################################
  #
  #  Definition of "minimal" basis
  #
  ################################################################################
  #     valence basis states
      valence      4  s   2.
      valence      4  p   4.
      valence      3  d  10.
  #     ion occupancy
      ion_occ      4  s   1.
      ion_occ      4  p   3.
      ion_occ      3  d  10.
  ################################################################################
  #
  #  Suggested additional basis functions. For production calculations,
  #  uncomment them one after another (the most important basis functions are
  #  listed first).
  #
  #  Constructed for dimers: 1.85 A, 2.15 A, 2.50 A, 3.00 A, 4.00 A
  #
  ################################################################################
  #  "First tier" - improvements: -336.21 meV to -36.85 meV
       hydro 3 d 4.3
       hydro 2 p 1.6
       hydro 4 f 7.2
       ionic 4 s auto
  #  "Second tier" - improvements: -14.39 meV to -1.49 meV
  #     hydro 5 g 10.4
  #     hydro 4 p 4.5
  #     hydro 4 d 6.2
  #     hydro 4 f 11.2
  #     hydro 1 s 0.65
  #     hydro 6 h 15.2
  #  "Third tier" - improvements: -0.46 meV and below
  #     hydro 5 g 14.4
  #     ionic 4 d auto
  #     hydro 4 f 22.4
  #     hydro 5 f 7.4
  #     hydro 5 p 8
  #     hydro 5 s 9.4
  #  "Fourth tier" - improvements: -0.12 meV and below
  #     hydro 5 d 11.6
  #     hydro 6 h 18
  #     hydro 4 p 4
  #     hydro 5 f 16
  #     hydro 4 s 3.9
  
  
  
  -----------------------------------------------------------------------
  Completed first pass over input file control.in .
  -----------------------------------------------------------------------
  
  
  -----------------------------------------------------------------------
  Parsing geometry.in (first pass over file, find array dimensions only).
  The contents of geometry.in will be repeated verbatim below
  unless switched off by setting 'verbatim_writeout .false.' .
  in the first line of geometry.in .
  -----------------------------------------------------------------------
  
  #
  # This is the geometry file that corresponds to the current relaxation step.
  # If you do not want this file to be written, set the "write_restart_geometry" flag to .false.
  #  aims_uuid : EB025F2F-28B1-4528-A04F-A813850CA15A
  #
    set_vacuum_level        52.700086
  lattice_vector     15.76960250      0.00000000      0.00000000
  lattice_vector     -7.88732950     13.65525595      0.00000000
  lattice_vector      0.00000000      0.00000000     99.30554027
  atom       1.61090751      0.97126117      3.10498520 Mo
  atom       0.03093294      1.88502986      4.67319336 S
  atom       0.03093495      1.87718316      1.53740128 S
  atom       0.03055661      3.70185421      3.09912827 Mo
  atom      -1.56597090      4.61411780      4.65676099 S
  atom      -1.54656520      4.60214669      1.52191911 S
  atom      -1.55356531      6.42745392      3.08129261 Mo
  atom      -3.15547426      7.32383035      4.63110174 S
  atom      -3.12322934      7.34246451      1.50442835 S
  atom      -3.13140287      9.15909676      3.08130986 Mo
  atom      -4.70846330     10.05459058      4.65678676 S
  atom      -4.70911716     10.07741477      1.52194760 S
  atom      -4.70080084     11.89317455      3.09916864 Mo
  atom      -6.27450487     12.80154957      4.67319345 S
  atom      -6.28127010     12.80544963      1.53743740 S
  atom       4.77107302      0.98474773      3.08136827 Mo
  atom       3.20230569      1.89001591      4.66113484 S
  atom       3.17944429      1.87670292      1.52536071 S
  atom       3.20222439      3.70098922      3.08124380 Mo
  atom       1.62686033      4.61410974      4.65675787 S
  atom       1.60737070      4.60215907      1.52188082 S
  atom       1.61361559      6.42745295      3.08129078 Mo
  atom       0.02992384      7.33938100      4.64704063 S
  atom       0.02991669      7.33815285      1.51558843 S
  atom       0.02951341      9.16273462      3.08104577 Mo
  atom      -1.54982746     10.07435590      4.64707110 S
  atom      -1.55090930     10.07498470      1.51559189 S
  atom      -1.54830126     11.90166030      3.08131920 Mo
  atom      -3.11252565     12.81936357      4.65680715 S
  atom      -3.13261719     12.80851624      1.52194568 S
  atom       7.91585879      1.00302129      3.04034093 Mo
  atom       6.38839717      1.96023852      4.60792772 S
  atom       6.32179526      1.89523572      1.46924703 S
  atom       6.38795982      3.72930911      2.99470367 Mo
  atom       4.85558554      4.61373933      4.60790427 S
  atom       4.76619520      4.58850600      1.46910766 S
  atom       4.78987924      6.41488964      3.04022408 Mo
  atom       3.21532094      7.32382736      4.63105179 S
  atom       3.18300862      7.34250450      1.50442429 S
  atom       3.19047316      9.15910573      3.08129407 Mo
  atom       1.60865189     10.07433682      4.64703547 S
  atom       1.60971926     10.07497033      1.51561293 S
  atom       1.60633341     11.90164720      3.08131331 Mo
  atom       0.02889553     12.84042022      4.63112019 S
  atom       0.02889537     12.80317631      1.50445273 S
  atom      11.06065534      0.98474712      3.08133792 Mo
  atom       9.44311109      1.96008383      4.60796258 S
  atom       9.50966298      1.89529887      1.46925916 S
  atom       9.44271361      3.72923787      2.99481260 Mo
  atom       7.91534574      4.61090786      1.40863933 S
  atom       7.91488913      6.37438680      2.99475350 Mo
  atom       6.38249036      7.25895503      4.60784874 S
  atom       6.35966536      7.34903825      1.46920482 S
  atom       6.34595814      9.14726863      3.08130278 Mo
  atom       4.76729631     10.05461205      4.65678462 S
  atom       4.76793871     10.07742414      1.52188509 S
  atom       4.75886966     11.89315345      3.09913943 Mo
  atom       3.17037060     12.81934254      4.65677251 S
  atom       3.19044126     12.80851732      1.52194276 S
  atom      14.22081817      0.97124231      3.10497602 Mo
  atom      12.62917054      1.88997197      4.66113580 S
  atom      12.65202001      1.87676593      1.52536927 S
  atom      12.62852524      3.70094212      3.08132226 Mo
  atom      10.97489166      4.61375722      4.60794398 S
  atom      11.06426891      4.58852944      1.46924312 S
  atom      11.03977914      6.41494367      3.04031995 Mo
  atom       9.44691974      7.25884552      4.60793227 S
  atom       9.46984326      7.34901749      1.46921437 S
  atom       9.48267618      9.14720625      3.08134553 Mo
  atom       7.91420164     10.05290214      4.66115445 S
  atom       7.91423370     10.07930207      1.52534821 S
  atom       7.91382474     11.89043234      3.10498282 Mo
  atom       6.33231598     12.80154204      4.67319709 S
  atom       6.33909867     12.80545341      1.53740731 S
  #
  # What follows is the current estimated Hessian matrix constructed by the BFGS algorithm.
  # This is NOT the true Hessian matrix of the system.
  # If you do not want this information here, switch it off using the "hessian_to_restart_geometry" keyword.
  #
  trust_radius             0.0004167525
  hessian_file
  
  -----------------------------------------------------------------------
  Completed first pass over input file geometry.in .
  -----------------------------------------------------------------------
  

  Basic array size parameters:
  | Number of species                 :        4
  | Number of atoms                   :       74
  | Number of lattice vectors         :        3
  | Max. basis fn. angular momentum   :        4
  | Max. atomic/ionic basis occupied n:        6
  | Max. number of basis fn. types    :        3
  | Max. radial fns per species/type  :       14
  | Max. logarithmic grid size        :     1483
  | Max. radial integration grid size :      143
  | Max. angular integration grid size:      434
  | Max. angular grid division number :        8
  | Radial grid for Hartree potential :     1483
  | Number of spin channels           :        2

------------------------------------------------------------
          Reading file control.in.
------------------------------------------------------------
  XC: Using PBE gradient-corrected functionals.
  Spin treatment: Spin density functional theory - collinear spins.
  Initial spin moment per atom:   1.0000
  Charge =   0.000000E+00: Neutral system requested explicitly.
  Scalar relativistic treatment of kinetic energy: on-site free-atom approximation to ZORA.
  Calculating density of states with
  | energy interval :-10.000000  0.000000
  | points & tetrahedron method :  2001
  Calculating angular-momentum projected DOS with 
  | energy interval :-10.000000  0.000000
  | points & tetrahedron :  2001
  Found k-point grid:         4         4         1
  Using dipole correction.
  Using libMBD for calculating MBD and TS energies
 
  Reading configuration options for species S                   .
  | Found nuclear charge :  16.0000
  | Found atomic mass :    32.0650000000000      amu
  | Found l_max for Hartree potential  :   6
  | Found cutoff potl. onset [A], width [A], scale factor :    4.00000    2.00000    1.00000
  | Threshold for basis-dependent cutoff potential is   0.100000E-03
  | Found data for basic radial integration grid :    44 points, outermost radius =    7.000 A
  | Found multiplier for basic radial grid :   2
  | Found angular grid specification: user-specified.
  | Specified grid contains     5 separate shells.
  | Check grid settings after all constraints further below.
  | Found free-atom valence shell :  3 s   2.000
  | Found free-atom valence shell :  3 p   4.000
  | Found free-ion valence shell :  3 s   1.000
  | Found free-ion valence shell :  3 p   3.000
  | Found ionic basis function :  3 d , default cutoff radius.
  | Found hydrogenic basis function :  2 p   1.800
  | Found hydrogenic basis function :  4 f   7.000
  | Found ionic basis function :  3 s , default cutoff radius.
  | Found hydrogenic basis function :  4 d   6.200
  | Found hydrogenic basis function :  5 g  10.800
  Species S                   : Missing cutoff potential type.
  Defaulting to exp(1/x)/(1-x)^2 type cutoff potential.
  Species S : No 'logarithmic' tag. Using default grid for free atom:
  | Default logarithmic grid data [bohr] : 0.1000E-03 0.1000E+03 0.1012E+01
  | Will include ionic basis functions of  2.0-fold positive S                    ion.
  Species S : On-site basis accuracy parameter (for Gram-Schmidt orthonormalisation) not specified.
  Using default value basis_acc =  0.1000000E-03.
  Species S                   : Using default innermost maximum threshold i_radial=  2 for radial functions.
  Species S                   : Default cutoff onset for free atom density etc. : 0.40000000E+01 AA.
  Species S                   : Basic radial grid will be enhanced according to radial_multiplier =   2, to contain    89 grid points.
 
  Reading configuration options for species Mo                  .
  | Found nuclear charge :  42.0000
  | Found atomic mass :    95.9400000000000      amu
  | Found l_max for Hartree potential  :   6
  | Found cutoff potl. onset [A], width [A], scale factor :    4.00000    2.00000    1.00000
  | Threshold for basis-dependent cutoff potential is   0.100000E-03
  | Found data for basic radial integration grid :    59 points, outermost radius =    7.000 A
  | Found multiplier for basic radial grid :   2
  | Found angular grid specification: user-specified.
  | Specified grid contains     6 separate shells.
  | Check grid settings after all constraints further below.
  | Found free-atom valence shell :  5 s   1.000
  | Found free-atom valence shell :  4 p   6.000
  | Found free-atom valence shell :  4 d   5.000
  | Found free-ion valence shell :  5 s   0.000
  | Found free-ion valence shell :  4 p   6.000
  | Found free-ion valence shell :  4 d   4.000
  | Found hydrogenic basis function :  4 f   8.400
  | Found hydrogenic basis function :  3 d   2.800
  | Found ionic basis function :  5 p , default cutoff radius.
  | Found hydrogenic basis function :  5 g  12.000
  | Found ionic basis function :  5 s , default cutoff radius.
  Species Mo                  : Missing cutoff potential type.
  Defaulting to exp(1/x)/(1-x)^2 type cutoff potential.
  Species Mo: No 'logarithmic' tag. Using default grid for free atom:
  | Default logarithmic grid data [bohr] : 0.1000E-03 0.1000E+03 0.1012E+01
  | Will include ionic basis functions of  2.0-fold positive Mo                   ion.
  Species Mo: On-site basis accuracy parameter (for Gram-Schmidt orthonormalisation) not specified.
  Using default value basis_acc =  0.1000000E-03.
  Species Mo                  : Using default innermost maximum threshold i_radial=  2 for radial functions.
  Species Mo                  : Default cutoff onset for free atom density etc. : 0.40000000E+01 AA.
  Species Mo                  : Basic radial grid will be enhanced according to radial_multiplier =   2, to contain   119 grid points.
 
  Reading configuration options for species W                   .
  | Found nuclear charge :  74.0000
  | Found atomic mass :    183.840000000000      amu
  | Found l_max for Hartree potential  :   6
  | Found cutoff potl. onset [A], width [A], scale factor :    4.00000    2.00000    1.00000
  | Threshold for basis-dependent cutoff potential is   0.100000E-03
  | Found data for basic radial integration grid :    71 points, outermost radius =    7.000 A
  | Found multiplier for basic radial grid :   2
  | Found angular grid specification: user-specified.
  | Specified grid contains     6 separate shells.
  | Check grid settings after all constraints further below.
  | Found free-atom valence shell :  6 s   2.000
  | Found free-atom valence shell :  5 p   6.000
  | Found free-atom valence shell :  5 d   4.000
  | Found free-atom valence shell :  4 f  14.000
  | Found free-ion valence shell :  6 s   1.000
  | Found free-ion valence shell :  5 p   6.000
  | Found free-ion valence shell :  5 d   3.000
  | Found free-ion valence shell :  4 f  14.000
  | Found hydrogenic basis function :  4 f   7.800
  | Found hydrogenic basis function :  4 d   5.800
  | Found ionic basis function :  6 p , default cutoff radius.
  | Found hydrogenic basis function :  5 g  12.400
  | Found ionic basis function :  6 s , default cutoff radius.
  Species W                   : Missing cutoff potential type.
  Defaulting to exp(1/x)/(1-x)^2 type cutoff potential.
  Species W : No 'logarithmic' tag. Using default grid for free atom:
  | Default logarithmic grid data [bohr] : 0.1000E-03 0.1000E+03 0.1012E+01
  | Will include ionic basis functions of  2.0-fold positive W                    ion.
  Species W : On-site basis accuracy parameter (for Gram-Schmidt orthonormalisation) not specified.
  Using default value basis_acc =  0.1000000E-03.
  Species W                   : Using default innermost maximum threshold i_radial=  2 for radial functions.
  Species W                   : Default cutoff onset for free atom density etc. : 0.40000000E+01 AA.
  Species W                   : Basic radial grid will be enhanced according to radial_multiplier =   2, to contain   143 grid points.
 
  Reading configuration options for species Se                  .
  | Found nuclear charge :  34.0000
  | Found atomic mass :    78.9600000000000      amu
  | Found l_max for Hartree potential  :   6
  | Found cutoff potl. onset [A], width [A], scale factor :    4.00000    2.00000    1.00000
  | Threshold for basis-dependent cutoff potential is   0.100000E-03
  | Found data for basic radial integration grid :    55 points, outermost radius =    7.000 A
  | Found multiplier for basic radial grid :   2
  | Found angular grid specification: user-specified.
  | Specified grid contains     5 separate shells.
  | Check grid settings after all constraints further below.
  | Found free-atom valence shell :  4 s   2.000
  | Found free-atom valence shell :  4 p   4.000
  | Found free-atom valence shell :  3 d  10.000
  | Found free-ion valence shell :  4 s   1.000
  | Found free-ion valence shell :  4 p   3.000
  | Found free-ion valence shell :  3 d  10.000
  | Found hydrogenic basis function :  3 d   4.300
  | Found hydrogenic basis function :  2 p   1.600
  | Found hydrogenic basis function :  4 f   7.200
  | Found ionic basis function :  4 s , default cutoff radius.
  Species Se                  : Missing cutoff potential type.
  Defaulting to exp(1/x)/(1-x)^2 type cutoff potential.
  Species Se: No 'logarithmic' tag. Using default grid for free atom:
  | Default logarithmic grid data [bohr] : 0.1000E-03 0.1000E+03 0.1012E+01
  | Will include ionic basis functions of  2.0-fold positive Se                   ion.
  Species Se: On-site basis accuracy parameter (for Gram-Schmidt orthonormalisation) not specified.
  Using default value basis_acc =  0.1000000E-03.
  Species Se                  : Using default innermost maximum threshold i_radial=  2 for radial functions.
  Species Se                  : Default cutoff onset for free atom density etc. : 0.40000000E+01 AA.
  Species Se                  : Basic radial grid will be enhanced according to radial_multiplier =   2, to contain   111 grid points.
 
  Finished reading input file 'control.in'.
 
------------------------------------------------------------


------------------------------------------------------------
          Reading geometry description geometry.in.
------------------------------------------------------------
  Vacuum level in z-axis :   0.527001E+02
  Found keyword 'hessian_file', indicating that this is the continuation of a structure optimization.
  However, the control.in file does not request the geometry to be optimized.
  Ignoring the request for a file 'hessian.aims' to be present.
  | The smallest distance between any two atoms is         2.37183818 AA.
  | The first atom of this pair is atom number                     50 .
  | The second atom of this pair is atom number                    51 .
  | Wigner-Seitz cell of the first atom image           0     0     0 .
  | (The Wigner-Seitz cell of the second atom is 0 0 0  by definition.)

  Symmetry information by spglib:
  | Precision set to  0.1E-04
  | Number of Operations  : 1
  | Space group           : 1
  | International         : P1 D     wL
  | Schoenflies           : C1^1
  Input structure read successfully.
  The structure contains       74 atoms,  and a total of       1834.000 electrons.

  Input geometry:
  | Unit cell:
  |       15.76960250        0.00000000        0.00000000
  |       -7.88732950       13.65525595        0.00000000
  |        0.00000000        0.00000000       99.30554027
  | Atomic structure:
  |       Atom                x [A]            y [A]            z [A]
  |    1: Species Mo            1.61090751        0.97126117        3.10498520
  |    2: Species S             0.03093294        1.88502986        4.67319336
  |    3: Species S             0.03093495        1.87718316        1.53740128
  |    4: Species Mo            0.03055661        3.70185421        3.09912827
  |    5: Species S            -1.56597090        4.61411780        4.65676099
  |    6: Species S            -1.54656520        4.60214669        1.52191911
  |    7: Species Mo           -1.55356531        6.42745392        3.08129261
  |    8: Species S            -3.15547426        7.32383035        4.63110174
  |    9: Species S            -3.12322934        7.34246451        1.50442835
  |   10: Species Mo           -3.13140287        9.15909676        3.08130986
  |   11: Species S            -4.70846330       10.05459058        4.65678676
  |   12: Species S            -4.70911716       10.07741477        1.52194760
  |   13: Species Mo           -4.70080084       11.89317455        3.09916864
  |   14: Species S            -6.27450487       12.80154957        4.67319345
  |   15: Species S            -6.28127010       12.80544963        1.53743740
  |   16: Species Mo            4.77107302        0.98474773        3.08136827
  |   17: Species S             3.20230569        1.89001591        4.66113484
  |   18: Species S             3.17944429        1.87670292        1.52536071
  |   19: Species Mo            3.20222439        3.70098922        3.08124380
  |   20: Species S             1.62686033        4.61410974        4.65675787
  |   21: Species S             1.60737070        4.60215907        1.52188082
  |   22: Species Mo            1.61361559        6.42745295        3.08129078
  |   23: Species S             0.02992384        7.33938100        4.64704063
  |   24: Species S             0.02991669        7.33815285        1.51558843
  |   25: Species Mo            0.02951341        9.16273462        3.08104577
  |   26: Species S            -1.54982746       10.07435590        4.64707110
  |   27: Species S            -1.55090930       10.07498470        1.51559189
  |   28: Species Mo           -1.54830126       11.90166030        3.08131920
  |   29: Species S            -3.11252565       12.81936357        4.65680715
  |   30: Species S            -3.13261719       12.80851624        1.52194568
  |   31: Species Mo            7.91585879        1.00302129        3.04034093
  |   32: Species S             6.38839717        1.96023852        4.60792772
  |   33: Species S             6.32179526        1.89523572        1.46924703
  |   34: Species Mo            6.38795982        3.72930911        2.99470367
  |   35: Species S             4.85558554        4.61373933        4.60790427
  |   36: Species S             4.76619520        4.58850600        1.46910766
  |   37: Species Mo            4.78987924        6.41488964        3.04022408
  |   38: Species S             3.21532094        7.32382736        4.63105179
  |   39: Species S             3.18300862        7.34250450        1.50442429
  |   40: Species Mo            3.19047316        9.15910573        3.08129407
  |   41: Species S             1.60865189       10.07433682        4.64703547
  |   42: Species S             1.60971926       10.07497033        1.51561293
  |   43: Species Mo            1.60633341       11.90164720        3.08131331
  |   44: Species S             0.02889553       12.84042022        4.63112019
  |   45: Species S             0.02889537       12.80317631        1.50445273
  |   46: Species Mo           11.06065534        0.98474712        3.08133792
  |   47: Species S             9.44311109        1.96008383        4.60796258
  |   48: Species S             9.50966298        1.89529887        1.46925916
  |   49: Species Mo            9.44271361        3.72923787        2.99481260
  |   50: Species S             7.91534574        4.61090786        1.40863933
  |   51: Species Mo            7.91488913        6.37438680        2.99475350
  |   52: Species S             6.38249036        7.25895503        4.60784874
  |   53: Species S             6.35966536        7.34903825        1.46920482
  |   54: Species Mo            6.34595814        9.14726863        3.08130278
  |   55: Species S             4.76729631       10.05461205        4.65678462
  |   56: Species S             4.76793871       10.07742414        1.52188509
  |   57: Species Mo            4.75886966       11.89315345        3.09913943
  |   58: Species S             3.17037060       12.81934254        4.65677251
  |   59: Species S             3.19044126       12.80851732        1.52194276
  |   60: Species Mo           14.22081817        0.97124231        3.10497602
  |   61: Species S            12.62917054        1.88997197        4.66113580
  |   62: Species S            12.65202001        1.87676593        1.52536927
  |   63: Species Mo           12.62852524        3.70094212        3.08132226
  |   64: Species S            10.97489166        4.61375722        4.60794398
  |   65: Species S            11.06426891        4.58852944        1.46924312
  |   66: Species Mo           11.03977914        6.41494367        3.04031995
  |   67: Species S             9.44691974        7.25884552        4.60793227
  |   68: Species S             9.46984326        7.34901749        1.46921437
  |   69: Species Mo            9.48267618        9.14720625        3.08134553
  |   70: Species S             7.91420164       10.05290214        4.66115445
  |   71: Species S             7.91423370       10.07930207        1.52534821
  |   72: Species Mo            7.91382474       11.89043234        3.10498282
  |   73: Species S             6.33231598       12.80154204        4.67319709
  |   74: Species S             6.33909867       12.80545341        1.53740731

  Lattice parameters for 3D lattice (in Angstroms) :    15.769602   15.769464   99.305540
  Angle(s) between unit vectors (in degrees)       :    90.000000   90.000000  120.010899


  Quantities derived from the lattice vectors:
  | Reciprocal lattice vector 1:  0.398437  0.230138  0.000000
  | Reciprocal lattice vector 2:  0.000000  0.460129  0.000000
  | Reciprocal lattice vector 3:  0.000000  0.000000  0.063271
  | Unit cell volume                               :   0.213843E+05  A^3

  Fractional coordinates:
                         L1                L2                L3
       atom_frac         0.13772774        0.07112728        0.03126699  Mo
       atom_frac         0.07100582        0.13804427        0.04705874  S
       atom_frac         0.07071854        0.13746964        0.01548153  S
       atom_frac         0.13752802        0.27109373        0.03120801  Mo
       atom_frac         0.06970129        0.33790050        0.04689326  S
       atom_frac         0.07049339        0.33702383        0.01532562  S
       atom_frac         0.13690626        0.47069450        0.03102841  Mo
       atom_frac         0.06815637        0.53633783        0.04663488  S
       atom_frac         0.07088365        0.53770244        0.01514949  S
       atom_frac         0.13690436        0.67073783        0.03102858  Mo
       atom_frac         0.06969787        0.73631652        0.04689352  S
       atom_frac         0.07049241        0.73798798        0.01532591  S
       atom_frac         0.13752683        0.87095947        0.03120842  Mo
       atom_frac         0.07100499        0.93748148        0.04705874  S
       atom_frac         0.07071884        0.93776709        0.01548189  S
       atom_frac         0.33861774        0.07211492        0.03102917  Mo
       atom_frac         0.27229515        0.13840941        0.04693731  S
       atom_frac         0.27035781        0.13743447        0.01536028  S
       atom_frac         0.33862174        0.27103038        0.03102791  Mo
       atom_frac         0.27216845        0.33789991        0.04689323  S
       atom_frac         0.27049482        0.33702474        0.01532524  S
       atom_frac         0.33774711        0.47069443        0.03102839  Mo
       atom_frac         0.27072205        0.53747663        0.04679538  S
       atom_frac         0.27067661        0.53738669        0.01526187  S
       atom_frac         0.33748124        0.67100424        0.03102592  Mo
       atom_frac         0.27072084        0.73776397        0.04679569  S
       atom_frac         0.27067527        0.73781002        0.01526191  S
       atom_frac         0.33774754        0.87158090        0.03102867  Mo
       atom_frac         0.27216850        0.93878603        0.04689373  S
       atom_frac         0.27049712        0.93799166        0.01532589  S
       atom_frac         0.53870780        0.07345313        0.03061603  Mo
       atom_frac         0.47690731        0.14355194        0.04640152  S
       atom_frac         0.47030297        0.13879167        0.01479522  S
       atom_frac         0.54167652        0.27310430        0.03015646  Mo
       atom_frac         0.47689848        0.33787278        0.04640128  S
       atom_frac         0.47030572        0.33602490        0.01479381  S
       atom_frac         0.53870379        0.46977440        0.03061485  Mo
       atom_frac         0.47214839        0.53633761        0.04663437  S
       atom_frac         0.47078346        0.53770537        0.01514945  S
       atom_frac         0.53779470        0.67073849        0.03102842  Mo
       atom_frac         0.47100924        0.73776258        0.04679533  S
       atom_frac         0.47110013        0.73780897        0.01526212  S
       atom_frac         0.53779235        0.87157994        0.03102861  Mo
       atom_frac         0.47214714        0.94032805        0.04663506  S
       atom_frac         0.47078297        0.93760061        0.01514974  S
       atom_frac         0.73745988        0.07211488        0.03102886  Mo
       atom_frac         0.67061064        0.14354061        0.04640187  S
       atom_frac         0.67245798        0.13879629        0.01479534  S
       atom_frac         0.73538544        0.27309908        0.03015756  Mo
       atom_frac         0.67082377        0.33766543        0.01418490  S
       atom_frac         0.73538696        0.46680830        0.03015696  Mo
       atom_frac         0.67061242        0.53158689        0.04640072  S
       atom_frac         0.67246456        0.53818385        0.01479479  S
       atom_frac         0.73746034        0.66987164        0.03102851  Mo
       atom_frac         0.67058632        0.73631810        0.04689350  S
       atom_frac         0.67146261        0.73798867        0.01532528  S
       atom_frac         0.73739347        0.87095793        0.03120812  Mo
       atom_frac         0.67058591        0.93878449        0.04689338  S
       atom_frac         0.67146215        0.93799174        0.01532586  S
       atom_frac         0.93736107        0.07112590        0.03126690  Mo
       atom_frac         0.87008064        0.13840619        0.04693732  S
       atom_frac         0.87104589        0.13743909        0.01536036  S
       atom_frac         0.93637135        0.27102693        0.03102870  Mo
       atom_frac         0.86494355        0.33787409        0.04640168  S
       atom_frac         0.86968721        0.33602662        0.01479518  S
       atom_frac         0.93503155        0.46977835        0.03061581  Mo
       atom_frac         0.86493350        0.53157887        0.04640156  S
       atom_frac         0.86968994        0.53818233        0.01479489  S
       atom_frac         0.93636719        0.66986707        0.03102894  Mo
       atom_frac         0.87007884        0.73619288        0.04693751  S
       atom_frac         0.87104784        0.73812619        0.01536015  S
       atom_frac         0.93735940        0.87075866        0.03126696  Mo
       atom_frac         0.87044280        0.93748093        0.04705878  S
       atom_frac         0.87101618        0.93776737        0.01548159  S

  Initial moments and charges:
  |  Atom   Moment         Charge        Species
  |     1   0.100000E+01   0.000000E+00   Mo
  |     2   0.100000E+01   0.000000E+00   S
  |     3   0.100000E+01   0.000000E+00   S
  |     4   0.100000E+01   0.000000E+00   Mo
  |     5   0.100000E+01   0.000000E+00   S
  |     6   0.100000E+01   0.000000E+00   S
  |     7   0.100000E+01   0.000000E+00   Mo
  |     8   0.100000E+01   0.000000E+00   S
  |     9   0.100000E+01   0.000000E+00   S
  |    10   0.100000E+01   0.000000E+00   Mo
  |    11   0.100000E+01   0.000000E+00   S
  |    12   0.100000E+01   0.000000E+00   S
  |    13   0.100000E+01   0.000000E+00   Mo
  |    14   0.100000E+01   0.000000E+00   S
  |    15   0.100000E+01   0.000000E+00   S
  |    16   0.100000E+01   0.000000E+00   Mo
  |    17   0.100000E+01   0.000000E+00   S
  |    18   0.100000E+01   0.000000E+00   S
  |    19   0.100000E+01   0.000000E+00   Mo
  |    20   0.100000E+01   0.000000E+00   S
  |    21   0.100000E+01   0.000000E+00   S
  |    22   0.100000E+01   0.000000E+00   Mo
  |    23   0.100000E+01   0.000000E+00   S
  |    24   0.100000E+01   0.000000E+00   S
  |    25   0.100000E+01   0.000000E+00   Mo
  |    26   0.100000E+01   0.000000E+00   S
  |    27   0.100000E+01   0.000000E+00   S
  |    28   0.100000E+01   0.000000E+00   Mo
  |    29   0.100000E+01   0.000000E+00   S
  |    30   0.100000E+01   0.000000E+00   S
  |    31   0.100000E+01   0.000000E+00   Mo
  |    32   0.100000E+01   0.000000E+00   S
  |    33   0.100000E+01   0.000000E+00   S
  |    34   0.100000E+01   0.000000E+00   Mo
  |    35   0.100000E+01   0.000000E+00   S
  |    36   0.100000E+01   0.000000E+00   S
  |    37   0.100000E+01   0.000000E+00   Mo
  |    38   0.100000E+01   0.000000E+00   S
  |    39   0.100000E+01   0.000000E+00   S
  |    40   0.100000E+01   0.000000E+00   Mo
  |    41   0.100000E+01   0.000000E+00   S
  |    42   0.100000E+01   0.000000E+00   S
  |    43   0.100000E+01   0.000000E+00   Mo
  |    44   0.100000E+01   0.000000E+00   S
  |    45   0.100000E+01   0.000000E+00   S
  |    46   0.100000E+01   0.000000E+00   Mo
  |    47   0.100000E+01   0.000000E+00   S
  |    48   0.100000E+01   0.000000E+00   S
  |    49   0.100000E+01   0.000000E+00   Mo
  |    50   0.100000E+01   0.000000E+00   S
  |    51   0.100000E+01   0.000000E+00   Mo
  |    52   0.100000E+01   0.000000E+00   S
  |    53   0.100000E+01   0.000000E+00   S
  |    54   0.100000E+01   0.000000E+00   Mo
  |    55   0.100000E+01   0.000000E+00   S
  |    56   0.100000E+01   0.000000E+00   S
  |    57   0.100000E+01   0.000000E+00   Mo
  |    58   0.100000E+01   0.000000E+00   S
  |    59   0.100000E+01   0.000000E+00   S
  |    60   0.100000E+01   0.000000E+00   Mo
  |    61   0.100000E+01   0.000000E+00   S
  |    62   0.100000E+01   0.000000E+00   S
  |    63   0.100000E+01   0.000000E+00   Mo
  |    64   0.100000E+01   0.000000E+00   S
  |    65   0.100000E+01   0.000000E+00   S
  |    66   0.100000E+01   0.000000E+00   Mo
  |    67   0.100000E+01   0.000000E+00   S
  |    68   0.100000E+01   0.000000E+00   S
  |    69   0.100000E+01   0.000000E+00   Mo
  |    70   0.100000E+01   0.000000E+00   S
  |    71   0.100000E+01   0.000000E+00   S
  |    72   0.100000E+01   0.000000E+00   Mo
  |    73   0.100000E+01   0.000000E+00   S
  |    74   0.100000E+01   0.000000E+00   S

 
  Finished reading input file 'control.in'.
 

------------------------------------------------------------
          Reading geometry description geometry.in.
------------------------------------------------------------
 
  Consistency checks for stacksize environment parameter are next.
 
  | Maximum stacksize for task 0: unlimited
  | Maximum stacksize for task 1: unlimited
  | Maximum stacksize for task 2: unlimited
  | Maximum stacksize for task 3: unlimited
  | Maximum stacksize for task 4: unlimited
  | Maximum stacksize for task 5: unlimited
  | Maximum stacksize for task 6: unlimited
  | Maximum stacksize for task 7: unlimited
  | Maximum stacksize for task 8: unlimited
  | Maximum stacksize for task 9: unlimited
  | Maximum stacksize for task 10: unlimited
  | Maximum stacksize for task 11: unlimited
  | Maximum stacksize for task 12: unlimited
  | Maximum stacksize for task 13: unlimited
  | Maximum stacksize for task 14: unlimited
  | Maximum stacksize for task 15: unlimited
  | Maximum stacksize for task 16: unlimited
  | Maximum stacksize for task 17: unlimited
  | Maximum stacksize for task 18: unlimited
  | Maximum stacksize for task 19: unlimited
  | Maximum stacksize for task 20: unlimited
  | Maximum stacksize for task 21: unlimited
  | Maximum stacksize for task 22: unlimited
  | Maximum stacksize for task 23: unlimited
  | Maximum stacksize for task 24: unlimited
  | Maximum stacksize for task 25: unlimited
  | Maximum stacksize for task 26: unlimited
  | Maximum stacksize for task 27: unlimited
  | Maximum stacksize for task 28: unlimited
  | Maximum stacksize for task 29: unlimited
  | Maximum stacksize for task 30: unlimited
  | Maximum stacksize for task 31: unlimited
  | Maximum stacksize for task 32: unlimited
  | Maximum stacksize for task 33: unlimited
  | Maximum stacksize for task 34: unlimited
  | Maximum stacksize for task 35: unlimited
  | Maximum stacksize for task 36: unlimited
  | Maximum stacksize for task 37: unlimited
  | Maximum stacksize for task 38: unlimited
  | Maximum stacksize for task 39: unlimited
  | Maximum stacksize for task 40: unlimited
  | Maximum stacksize for task 41: unlimited
  | Maximum stacksize for task 42: unlimited
  | Maximum stacksize for task 43: unlimited
  | Maximum stacksize for task 44: unlimited
  | Maximum stacksize for task 45: unlimited
  | Maximum stacksize for task 46: unlimited
  | Maximum stacksize for task 47: unlimited
  | Maximum stacksize for task 48: unlimited
  | Maximum stacksize for task 49: unlimited
  | Maximum stacksize for task 50: unlimited
  | Maximum stacksize for task 51: unlimited
  | Maximum stacksize for task 52: unlimited
  | Maximum stacksize for task 53: unlimited
  | Maximum stacksize for task 54: unlimited
  | Maximum stacksize for task 55: unlimited
  | Maximum stacksize for task 56: unlimited
  | Maximum stacksize for task 57: unlimited
  | Maximum stacksize for task 58: unlimited
  | Maximum stacksize for task 59: unlimited
  | Maximum stacksize for task 60: unlimited
  | Maximum stacksize for task 61: unlimited
  | Maximum stacksize for task 62: unlimited
  | Maximum stacksize for task 63: unlimited
  | Maximum stacksize for task 64: unlimited
  | Maximum stacksize for task 65: unlimited
  | Maximum stacksize for task 66: unlimited
  | Maximum stacksize for task 67: unlimited
  | Maximum stacksize for task 68: unlimited
  | Maximum stacksize for task 69: unlimited
  | Maximum stacksize for task 70: unlimited
  | Maximum stacksize for task 71: unlimited
  | Maximum stacksize for task 72: unlimited
  | Maximum stacksize for task 73: unlimited
  | Maximum stacksize for task 74: unlimited
  | Maximum stacksize for task 75: unlimited
  | Maximum stacksize for task 76: unlimited
  | Maximum stacksize for task 77: unlimited
  | Maximum stacksize for task 78: unlimited
  | Maximum stacksize for task 79: unlimited
  | Maximum stacksize for task 80: unlimited
  | Maximum stacksize for task 81: unlimited
  | Maximum stacksize for task 82: unlimited
  | Maximum stacksize for task 83: unlimited
  | Maximum stacksize for task 84: unlimited
  | Maximum stacksize for task 85: unlimited
  | Maximum stacksize for task 86: unlimited
  | Maximum stacksize for task 87: unlimited
  | Maximum stacksize for task 88: unlimited
  | Maximum stacksize for task 89: unlimited
  | Maximum stacksize for task 90: unlimited
  | Maximum stacksize for task 91: unlimited
  | Maximum stacksize for task 92: unlimited
  | Maximum stacksize for task 93: unlimited
  | Maximum stacksize for task 94: unlimited
  | Maximum stacksize for task 95: unlimited
  | Maximum stacksize for task 96: unlimited
  | Maximum stacksize for task 97: unlimited
  | Maximum stacksize for task 98: unlimited
  | Maximum stacksize for task 99: unlimited
  | Maximum stacksize for task 100: unlimited
  | Maximum stacksize for task 101: unlimited
  | Maximum stacksize for task 102: unlimited
  | Maximum stacksize for task 103: unlimited
  | Maximum stacksize for task 104: unlimited
  | Maximum stacksize for task 105: unlimited
  | Maximum stacksize for task 106: unlimited
  | Maximum stacksize for task 107: unlimited
  | Maximum stacksize for task 108: unlimited
  | Maximum stacksize for task 109: unlimited
  | Maximum stacksize for task 110: unlimited
  | Maximum stacksize for task 111: unlimited
  | Maximum stacksize for task 112: unlimited
  | Maximum stacksize for task 113: unlimited
  | Maximum stacksize for task 114: unlimited
  | Maximum stacksize for task 115: unlimited
  | Maximum stacksize for task 116: unlimited
  | Maximum stacksize for task 117: unlimited
  | Maximum stacksize for task 118: unlimited
  | Maximum stacksize for task 119: unlimited
  | Maximum stacksize for task 120: unlimited
  | Maximum stacksize for task 121: unlimited
  | Maximum stacksize for task 122: unlimited
  | Maximum stacksize for task 123: unlimited
  | Maximum stacksize for task 124: unlimited
  | Maximum stacksize for task 125: unlimited
  | Maximum stacksize for task 126: unlimited
  | Maximum stacksize for task 127: unlimited
  | Maximum stacksize for task 128: unlimited
  | Maximum stacksize for task 129: unlimited
  | Maximum stacksize for task 130: unlimited
  | Maximum stacksize for task 131: unlimited
  | Maximum stacksize for task 132: unlimited
  | Maximum stacksize for task 133: unlimited
  | Maximum stacksize for task 134: unlimited
  | Maximum stacksize for task 135: unlimited
  | Maximum stacksize for task 136: unlimited
  | Maximum stacksize for task 137: unlimited
  | Maximum stacksize for task 138: unlimited
  | Maximum stacksize for task 139: unlimited
  | Maximum stacksize for task 140: unlimited
  | Maximum stacksize for task 141: unlimited
  | Maximum stacksize for task 142: unlimited
  | Maximum stacksize for task 143: unlimited
  | Maximum stacksize for task 144: unlimited
  | Maximum stacksize for task 145: unlimited
  | Maximum stacksize for task 146: unlimited
  | Maximum stacksize for task 147: unlimited
  | Maximum stacksize for task 148: unlimited
  | Maximum stacksize for task 149: unlimited
  | Maximum stacksize for task 150: unlimited
  | Maximum stacksize for task 151: unlimited
  | Maximum stacksize for task 152: unlimited
  | Maximum stacksize for task 153: unlimited
  | Maximum stacksize for task 154: unlimited
  | Maximum stacksize for task 155: unlimited
  | Maximum stacksize for task 156: unlimited
  | Maximum stacksize for task 157: unlimited
  | Maximum stacksize for task 158: unlimited
  | Maximum stacksize for task 159: unlimited
  | Maximum stacksize for task 160: unlimited
  | Maximum stacksize for task 161: unlimited
  | Maximum stacksize for task 162: unlimited
  | Maximum stacksize for task 163: unlimited
  | Maximum stacksize for task 164: unlimited
  | Maximum stacksize for task 165: unlimited
  | Maximum stacksize for task 166: unlimited
  | Maximum stacksize for task 167: unlimited
  | Maximum stacksize for task 168: unlimited
  | Maximum stacksize for task 169: unlimited
  | Maximum stacksize for task 170: unlimited
  | Maximum stacksize for task 171: unlimited
  | Maximum stacksize for task 172: unlimited
  | Maximum stacksize for task 173: unlimited
  | Maximum stacksize for task 174: unlimited
  | Maximum stacksize for task 175: unlimited
  | Maximum stacksize for task 176: unlimited
  | Maximum stacksize for task 177: unlimited
  | Maximum stacksize for task 178: unlimited
  | Maximum stacksize for task 179: unlimited
  | Maximum stacksize for task 180: unlimited
  | Maximum stacksize for task 181: unlimited
  | Maximum stacksize for task 182: unlimited
  | Maximum stacksize for task 183: unlimited
  | Maximum stacksize for task 184: unlimited
  | Maximum stacksize for task 185: unlimited
  | Maximum stacksize for task 186: unlimited
  | Maximum stacksize for task 187: unlimited
  | Maximum stacksize for task 188: unlimited
  | Maximum stacksize for task 189: unlimited
  | Maximum stacksize for task 190: unlimited
  | Maximum stacksize for task 191: unlimited
  | Maximum stacksize for task 192: unlimited
  | Maximum stacksize for task 193: unlimited
  | Maximum stacksize for task 194: unlimited
  | Maximum stacksize for task 195: unlimited
  | Maximum stacksize for task 196: unlimited
  | Maximum stacksize for task 197: unlimited
  | Maximum stacksize for task 198: unlimited
  | Maximum stacksize for task 199: unlimited
  | Maximum stacksize for task 200: unlimited
  | Maximum stacksize for task 201: unlimited
  | Maximum stacksize for task 202: unlimited
  | Maximum stacksize for task 203: unlimited
  | Maximum stacksize for task 204: unlimited
  | Maximum stacksize for task 205: unlimited
  | Maximum stacksize for task 206: unlimited
  | Maximum stacksize for task 207: unlimited
  | Maximum stacksize for task 208: unlimited
  | Maximum stacksize for task 209: unlimited
  | Maximum stacksize for task 210: unlimited
  | Maximum stacksize for task 211: unlimited
  | Maximum stacksize for task 212: unlimited
  | Maximum stacksize for task 213: unlimited
  | Maximum stacksize for task 214: unlimited
  | Maximum stacksize for task 215: unlimited
  | Maximum stacksize for task 216: unlimited
  | Maximum stacksize for task 217: unlimited
  | Maximum stacksize for task 218: unlimited
  | Maximum stacksize for task 219: unlimited
  | Maximum stacksize for task 220: unlimited
  | Maximum stacksize for task 221: unlimited
  | Maximum stacksize for task 222: unlimited
  | Maximum stacksize for task 223: unlimited
  | Maximum stacksize for task 224: unlimited
  | Maximum stacksize for task 225: unlimited
  | Maximum stacksize for task 226: unlimited
  | Maximum stacksize for task 227: unlimited
  | Maximum stacksize for task 228: unlimited
  | Maximum stacksize for task 229: unlimited
  | Maximum stacksize for task 230: unlimited
  | Maximum stacksize for task 231: unlimited
  | Maximum stacksize for task 232: unlimited
  | Maximum stacksize for task 233: unlimited
  | Maximum stacksize for task 234: unlimited
  | Maximum stacksize for task 235: unlimited
  | Maximum stacksize for task 236: unlimited
  | Maximum stacksize for task 237: unlimited
  | Maximum stacksize for task 238: unlimited
  | Maximum stacksize for task 239: unlimited
  | Maximum stacksize for task 240: unlimited
  | Maximum stacksize for task 241: unlimited
  | Maximum stacksize for task 242: unlimited
  | Maximum stacksize for task 243: unlimited
  | Maximum stacksize for task 244: unlimited
  | Maximum stacksize for task 245: unlimited
  | Maximum stacksize for task 246: unlimited
  | Maximum stacksize for task 247: unlimited
  | Maximum stacksize for task 248: unlimited
  | Maximum stacksize for task 249: unlimited
  | Maximum stacksize for task 250: unlimited
  | Maximum stacksize for task 251: unlimited
  | Maximum stacksize for task 252: unlimited
  | Maximum stacksize for task 253: unlimited
  | Maximum stacksize for task 254: unlimited
  | Maximum stacksize for task 255: unlimited
  | Maximum stacksize for task 256: unlimited
  | Maximum stacksize for task 257: unlimited
  | Maximum stacksize for task 258: unlimited
  | Maximum stacksize for task 259: unlimited
  | Maximum stacksize for task 260: unlimited
  | Maximum stacksize for task 261: unlimited
  | Maximum stacksize for task 262: unlimited
  | Maximum stacksize for task 263: unlimited
  | Maximum stacksize for task 264: unlimited
  | Maximum stacksize for task 265: unlimited
  | Maximum stacksize for task 266: unlimited
  | Maximum stacksize for task 267: unlimited
  | Maximum stacksize for task 268: unlimited
  | Maximum stacksize for task 269: unlimited
  | Maximum stacksize for task 270: unlimited
  | Maximum stacksize for task 271: unlimited
  | Maximum stacksize for task 272: unlimited
  | Maximum stacksize for task 273: unlimited
  | Maximum stacksize for task 274: unlimited
  | Maximum stacksize for task 275: unlimited
  | Maximum stacksize for task 276: unlimited
  | Maximum stacksize for task 277: unlimited
  | Maximum stacksize for task 278: unlimited
  | Maximum stacksize for task 279: unlimited
  | Maximum stacksize for task 280: unlimited
  | Maximum stacksize for task 281: unlimited
  | Maximum stacksize for task 282: unlimited
  | Maximum stacksize for task 283: unlimited
  | Maximum stacksize for task 284: unlimited
  | Maximum stacksize for task 285: unlimited
  | Maximum stacksize for task 286: unlimited
  | Maximum stacksize for task 287: unlimited
  | Current stacksize for task 0: unlimited
  | Current stacksize for task 1: unlimited
  | Current stacksize for task 2: unlimited
  | Current stacksize for task 3: unlimited
  | Current stacksize for task 4: unlimited
  | Current stacksize for task 5: unlimited
  | Current stacksize for task 6: unlimited
  | Current stacksize for task 7: unlimited
  | Current stacksize for task 8: unlimited
  | Current stacksize for task 9: unlimited
  | Current stacksize for task 10: unlimited
  | Current stacksize for task 11: unlimited
  | Current stacksize for task 12: unlimited
  | Current stacksize for task 13: unlimited
  | Current stacksize for task 14: unlimited
  | Current stacksize for task 15: unlimited
  | Current stacksize for task 16: unlimited
  | Current stacksize for task 17: unlimited
  | Current stacksize for task 18: unlimited
  | Current stacksize for task 19: unlimited
  | Current stacksize for task 20: unlimited
  | Current stacksize for task 21: unlimited
  | Current stacksize for task 22: unlimited
  | Current stacksize for task 23: unlimited
  | Current stacksize for task 24: unlimited
  | Current stacksize for task 25: unlimited
  | Current stacksize for task 26: unlimited
  | Current stacksize for task 27: unlimited
  | Current stacksize for task 28: unlimited
  | Current stacksize for task 29: unlimited
  | Current stacksize for task 30: unlimited
  | Current stacksize for task 31: unlimited
  | Current stacksize for task 32: unlimited
  | Current stacksize for task 33: unlimited
  | Current stacksize for task 34: unlimited
  | Current stacksize for task 35: unlimited
  | Current stacksize for task 36: unlimited
  | Current stacksize for task 37: unlimited
  | Current stacksize for task 38: unlimited
  | Current stacksize for task 39: unlimited
  | Current stacksize for task 40: unlimited
  | Current stacksize for task 41: unlimited
  | Current stacksize for task 42: unlimited
  | Current stacksize for task 43: unlimited
  | Current stacksize for task 44: unlimited
  | Current stacksize for task 45: unlimited
  | Current stacksize for task 46: unlimited
  | Current stacksize for task 47: unlimited
  | Current stacksize for task 48: unlimited
  | Current stacksize for task 49: unlimited
  | Current stacksize for task 50: unlimited
  | Current stacksize for task 51: unlimited
  | Current stacksize for task 52: unlimited
  | Current stacksize for task 53: unlimited
  | Current stacksize for task 54: unlimited
  | Current stacksize for task 55: unlimited
  | Current stacksize for task 56: unlimited
  | Current stacksize for task 57: unlimited
  | Current stacksize for task 58: unlimited
  | Current stacksize for task 59: unlimited
  | Current stacksize for task 60: unlimited
  | Current stacksize for task 61: unlimited
  | Current stacksize for task 62: unlimited
  | Current stacksize for task 63: unlimited
  | Current stacksize for task 64: unlimited
  | Current stacksize for task 65: unlimited
  | Current stacksize for task 66: unlimited
  | Current stacksize for task 67: unlimited
  | Current stacksize for task 68: unlimited
  | Current stacksize for task 69: unlimited
  | Current stacksize for task 70: unlimited
  | Current stacksize for task 71: unlimited
  | Current stacksize for task 72: unlimited
  | Current stacksize for task 73: unlimited
  | Current stacksize for task 74: unlimited
  | Current stacksize for task 75: unlimited
  | Current stacksize for task 76: unlimited
  | Current stacksize for task 77: unlimited
  | Current stacksize for task 78: unlimited
  | Current stacksize for task 79: unlimited
  | Current stacksize for task 80: unlimited
  | Current stacksize for task 81: unlimited
  | Current stacksize for task 82: unlimited
  | Current stacksize for task 83: unlimited
  | Current stacksize for task 84: unlimited
  | Current stacksize for task 85: unlimited
  | Current stacksize for task 86: unlimited
  | Current stacksize for task 87: unlimited
  | Current stacksize for task 88: unlimited
  | Current stacksize for task 89: unlimited
  | Current stacksize for task 90: unlimited
  | Current stacksize for task 91: unlimited
  | Current stacksize for task 92: unlimited
  | Current stacksize for task 93: unlimited
  | Current stacksize for task 94: unlimited
  | Current stacksize for task 95: unlimited
  | Current stacksize for task 96: unlimited
  | Current stacksize for task 97: unlimited
  | Current stacksize for task 98: unlimited
  | Current stacksize for task 99: unlimited
  | Current stacksize for task 100: unlimited
  | Current stacksize for task 101: unlimited
  | Current stacksize for task 102: unlimited
  | Current stacksize for task 103: unlimited
  | Current stacksize for task 104: unlimited
  | Current stacksize for task 105: unlimited
  | Current stacksize for task 106: unlimited
  | Current stacksize for task 107: unlimited
  | Current stacksize for task 108: unlimited
  | Current stacksize for task 109: unlimited
  | Current stacksize for task 110: unlimited
  | Current stacksize for task 111: unlimited
  | Current stacksize for task 112: unlimited
  | Current stacksize for task 113: unlimited
  | Current stacksize for task 114: unlimited
  | Current stacksize for task 115: unlimited
  | Current stacksize for task 116: unlimited
  | Current stacksize for task 117: unlimited
  | Current stacksize for task 118: unlimited
  | Current stacksize for task 119: unlimited
  | Current stacksize for task 120: unlimited
  | Current stacksize for task 121: unlimited
  | Current stacksize for task 122: unlimited
[...]
  |    36       16.224000       -0.224000        5.849728       10.079344        0.234913        0.049896        0.010119
  |    37       41.542581        0.457419        8.158064       18.651525       14.621175        0.097165        0.014651
  |    38       16.232818       -0.232818        5.850637       10.093012        0.230614        0.048665        0.009890
  |    39       16.237691       -0.237691        5.850458       10.099002        0.229859        0.048476        0.009896
  |    40       41.529080        0.470920        8.153766       18.649460       14.614349        0.096929        0.014577
  |    41       16.235276       -0.235276        5.850777       10.095704        0.230078        0.048767        0.009950
  |    42       16.236012       -0.236012        5.850575       10.094538        0.231830        0.049063        0.010007
  |    43       41.529092        0.470908        8.153791       18.649438       14.614360        0.096926        0.014576
  |    44       16.232706       -0.232706        5.850598       10.092943        0.230612        0.048663        0.009891
  |    45       16.237690       -0.237690        5.850443       10.099025        0.229853        0.048475        0.009895
  |    46       41.524413        0.475587        8.146953       18.645294       14.622741        0.095017        0.014408
  |    47       16.258037       -0.258037        5.852680       10.112533        0.234958        0.048047        0.009819
  |    48       16.223964       -0.223964        5.849716       10.079314        0.234918        0.049897        0.010118
  |    49       41.573743        0.426257        8.215746       18.645893       14.613707        0.085118        0.013279
  |    50       16.243991       -0.243991        5.840774       10.082858        0.253363        0.055824        0.011172
  |    51       41.573607        0.426393        8.215456       18.646050       14.613708        0.085114        0.013279
  |    52       16.258124       -0.258124        5.852731       10.112573        0.234956        0.048045        0.009819
  |    53       16.223906       -0.223906        5.849715       10.079272        0.234908        0.049893        0.010119
  |    54       41.524360        0.475640        8.146914       18.645300       14.622721        0.095017        0.014408
  |    55       16.237040       -0.237040        5.851409       10.098061        0.229032        0.048592        0.009945
  |    56       16.236072       -0.236072        5.849935       10.093024        0.233527        0.049496        0.010090
  |    57       41.527174        0.472826        8.151696       18.648650       14.615949        0.096335        0.014543
  |    58       16.237009       -0.237009        5.851392       10.098039        0.229040        0.048592        0.009945
  |    59       16.236081       -0.236081        5.849929       10.093036        0.233530        0.049496        0.010090
  |    60       41.526844        0.473156        8.151038       18.647976       14.616707        0.096538        0.014585
  |    61       16.237652       -0.237652        5.851572       10.095881        0.231379        0.048861        0.009960
  |    62       16.236295       -0.236295        5.849130       10.087800        0.238539        0.050568        0.010258
  |    63       41.524255        0.475745        8.146824       18.645300       14.622706        0.095017        0.014408
  |    64       16.258193       -0.258193        5.852757       10.112598        0.234968        0.048049        0.009820
  |    65       16.223988       -0.223988        5.849725       10.079317        0.234929        0.049898        0.010119
  |    66       41.542590        0.457410        8.158065       18.651530       14.621174        0.097170        0.014652
  |    67       16.258131       -0.258131        5.852732       10.112604        0.234934        0.048042        0.009819
  |    68       16.223902       -0.223902        5.849714       10.079240        0.234930        0.049898        0.010119
  |    69       41.524358        0.475642        8.146911       18.645302       14.622724        0.095013        0.014408
  |    70       16.237602       -0.237602        5.851571       10.095854        0.231360        0.048858        0.009960
  |    71       16.236196       -0.236196        5.849119       10.087721        0.238531        0.050567        0.010257
  |    72       41.526871        0.473129        8.151070       18.647960       14.616718        0.096538        0.014585
  |    73       16.236787       -0.236787        5.851362       10.096206        0.230390        0.048848        0.009981
  |    74       16.235599       -0.235599        5.849862       10.090443        0.235265        0.049874        0.010155
  |
  | Total     1834.000000       -0.000000
 
  Summary of the per-atom spin analysis:
  |
  |  atom   spin      l=0         l=1         l=2         l=3         l=4
  |     1    0.000000    0.000000    0.000000    0.000000    0.000000   -0.000000
  |     2   -0.000000   -0.000000   -0.000000    0.000000    0.000000    0.000000
  |     3   -0.000000   -0.000000   -0.000000    0.000000    0.000000    0.000000
  |     4    0.000000    0.000000    0.000000    0.000000    0.000000    0.000000
  |     5   -0.000000   -0.000000   -0.000000    0.000000    0.000000    0.000000
  |     6   -0.000000   -0.000000   -0.000000    0.000000    0.000000    0.000000
  |     7    0.000000    0.000000    0.000000    0.000000    0.000000    0.000000
  |     8   -0.000000   -0.000000   -0.000000    0.000000    0.000000    0.000000
  |     9   -0.000000   -0.000000   -0.000000    0.000000    0.000000    0.000000
  |    10    0.000000    0.000000    0.000000    0.000000    0.000000    0.000000
  |    11   -0.000000   -0.000000   -0.000000    0.000000    0.000000    0.000000
  |    12   -0.000000   -0.000000   -0.000000    0.000000    0.000000    0.000000
  |    13    0.000000    0.000000    0.000000    0.000000    0.000000    0.000000
  |    14   -0.000000   -0.000000   -0.000000    0.000000    0.000000    0.000000
  |    15   -0.000000   -0.000000   -0.000000    0.000000    0.000000    0.000000
  |    16    0.000000    0.000000    0.000000    0.000000    0.000000    0.000000
  |    17   -0.000000   -0.000000   -0.000000    0.000000    0.000000    0.000000
  |    18   -0.000000   -0.000000   -0.000000    0.000000    0.000000    0.000000
  |    19    0.000000    0.000000    0.000000    0.000000    0.000000    0.000000
  |    20   -0.000000   -0.000000   -0.000000    0.000000    0.000000    0.000000
  |    21   -0.000000   -0.000000   -0.000000    0.000000    0.000000    0.000000
  |    22    0.000000    0.000000    0.000000    0.000000    0.000000    0.000000
  |    23   -0.000000   -0.000000   -0.000000    0.000000    0.000000    0.000000
  |    24   -0.000000   -0.000000   -0.000000    0.000000    0.000000    0.000000
  |    25    0.000000    0.000000    0.000000    0.000000    0.000000    0.000000
  |    26   -0.000000   -0.000000   -0.000000    0.000000    0.000000    0.000000
  |    27   -0.000000   -0.000000   -0.000000    0.000000    0.000000    0.000000
  |    28    0.000000    0.000000    0.000000    0.000000    0.000000    0.000000
  |    29   -0.000000   -0.000000   -0.000000    0.000000    0.000000    0.000000
  |    30   -0.000000   -0.000000   -0.000000    0.000000    0.000000    0.000000
  |    31    0.000003    0.000000    0.000000    0.000002    0.000000   -0.000000
  |    32   -0.000000   -0.000000   -0.000000    0.000000    0.000000    0.000000
  |    33   -0.000000   -0.000000   -0.000000    0.000000    0.000000    0.000000
  |    34   -0.000002   -0.000000   -0.000000   -0.000001   -0.000000   -0.000000
  |    35   -0.000000   -0.000000   -0.000000    0.000000    0.000000    0.000000
  |    36   -0.000000   -0.000000   -0.000000    0.000000    0.000000    0.000000
  |    37    0.000003    0.000000    0.000000    0.000002    0.000000   -0.000000
  |    38   -0.000000   -0.000000   -0.000000    0.000000    0.000000    0.000000
  |    39   -0.000000   -0.000000   -0.000000    0.000000    0.000000    0.000000
  |    40    0.000000    0.000000    0.000000    0.000000    0.000000    0.000000
  |    41   -0.000000   -0.000000   -0.000000    0.000000    0.000000    0.000000
  |    42   -0.000000   -0.000000   -0.000000    0.000000    0.000000    0.000000
  |    43    0.000000    0.000000    0.000000    0.000000    0.000000    0.000000
  |    44   -0.000000   -0.000000   -0.000000    0.000000    0.000000    0.000000
  |    45   -0.000000   -0.000000   -0.000000    0.000000    0.000000    0.000000
  |    46    0.000000    0.000000    0.000000    0.000000    0.000000    0.000000
  |    47   -0.000000   -0.000000   -0.000000    0.000000    0.000000    0.000000
  |    48   -0.000000   -0.000000   -0.000000    0.000000    0.000000    0.000000
  |    49   -0.000002   -0.000000   -0.000000   -0.000001   -0.000000   -0.000000
  |    50    0.000001    0.000000    0.000001    0.000000    0.000000   -0.000000
  |    51   -0.000002   -0.000000   -0.000000   -0.000001   -0.000000   -0.000000
  |    52   -0.000000   -0.000000   -0.000000    0.000000    0.000000    0.000000
  |    53   -0.000000   -0.000000   -0.000000    0.000000    0.000000    0.000000
  |    54    0.000000    0.000000    0.000000    0.000000    0.000000    0.000000
  |    55   -0.000000   -0.000000   -0.000000    0.000000    0.000000    0.000000
  |    56   -0.000000   -0.000000   -0.000000    0.000000    0.000000    0.000000
  |    57    0.000000    0.000000    0.000000    0.000000    0.000000    0.000000
  |    58   -0.000000   -0.000000   -0.000000    0.000000    0.000000    0.000000
  |    59   -0.000000   -0.000000   -0.000000    0.000000    0.000000    0.000000
  |    60    0.000000    0.000000    0.000000    0.000000    0.000000   -0.000000
  |    61   -0.000000   -0.000000   -0.000000    0.000000    0.000000    0.000000
  |    62   -0.000000   -0.000000   -0.000000    0.000000    0.000000    0.000000
  |    63    0.000000    0.000000    0.000000    0.000000    0.000000    0.000000
  |    64   -0.000000   -0.000000   -0.000000    0.000000    0.000000    0.000000
  |    65   -0.000000   -0.000000   -0.000000    0.000000    0.000000    0.000000
  |    66    0.000003    0.000000    0.000000    0.000002    0.000000   -0.000000
  |    67   -0.000000   -0.000000   -0.000000    0.000000    0.000000    0.000000
  |    68   -0.000000   -0.000000   -0.000000    0.000000    0.000000    0.000000
  |    69    0.000000    0.000000    0.000000    0.000000    0.000000    0.000000
  |    70   -0.000000   -0.000000   -0.000000    0.000000    0.000000    0.000000
  |    71   -0.000000   -0.000000   -0.000000    0.000000    0.000000    0.000000
  |    72    0.000000    0.000000    0.000000    0.000000    0.000000   -0.000000
  |    73   -0.000000   -0.000000   -0.000000    0.000000    0.000000    0.000000
  |    74   -0.000000   -0.000000   -0.000000    0.000000    0.000000    0.000000
  |
  | Total    0.000000
 
  Calculating angular momentum projected density of states ...
  | Chemical potential is  -5.236480 eV.
  | writing  spin_up projected DOS (shifted by the chemical potential) for species S to file S_l_proj_dos_tetrahedron_spin_up.dat.
  | writing  spin_up projected DOS (raw data) for species S to file S_l_proj_dos_tetrahedron_spin_up_raw.dat.
  | writing  spin_dn projected DOS (shifted by the chemical potential) for species S to file S_l_proj_dos_tetrahedron_spin_dn.dat.
  | writing  spin_dn projected DOS (raw data) for species S to file S_l_proj_dos_tetrahedron_spin_dn_raw.dat.
  | writing  spin_up projected DOS (shifted by the chemical potential) for species Mo to file Mo_l_proj_dos_tetrahedron_spin_up.dat.
  | writing  spin_up projected DOS (raw data) for species Mo to file Mo_l_proj_dos_tetrahedron_spin_up_raw.dat.
  | writing  spin_dn projected DOS (shifted by the chemical potential) for species Mo to file Mo_l_proj_dos_tetrahedron_spin_dn.dat.
  | writing  spin_dn projected DOS (raw data) for species Mo to file Mo_l_proj_dos_tetrahedron_spin_dn_raw.dat.
  | writing  spin_up projected DOS (shifted by the chemical potential) for species W to file W_l_proj_dos_tetrahedron_spin_up.dat.
  | writing  spin_up projected DOS (raw data) for species W to file W_l_proj_dos_tetrahedron_spin_up_raw.dat.
  | writing  spin_dn projected DOS (shifted by the chemical potential) for species W to file W_l_proj_dos_tetrahedron_spin_dn.dat.
  | writing  spin_dn projected DOS (raw data) for species W to file W_l_proj_dos_tetrahedron_spin_dn_raw.dat.
  | writing  spin_up projected DOS (shifted by the chemical potential) for species Se to file Se_l_proj_dos_tetrahedron_spin_up.dat.
  | writing  spin_up projected DOS (raw data) for species Se to file Se_l_proj_dos_tetrahedron_spin_up_raw.dat.
  | writing  spin_dn projected DOS (shifted by the chemical potential) for species Se to file Se_l_proj_dos_tetrahedron_spin_dn.dat.
  | writing  spin_dn projected DOS (raw data) for species Se to file Se_l_proj_dos_tetrahedron_spin_dn_raw.dat.

  Mulliken analysis                                       :  max(cpu_time)    wall_clock(cpu1)
  | Time for Mulliken analysis                            :          0.435               0.448
  | Total time for Mulliken analysis                      :          0.435               0.448
------------------------------------------------------------

------------------------------------------------------------------------------
  Final output of selected total energy values:

  The following output summarizes some interesting total energy values
  at the end of a run (AFTER all relaxation, molecular dynamics, etc.).

  | Total energy of the DFT / Hartree-Fock s.c.f. calculation      :       -3314051.255228756 eV
  | Final zero-broadening corrected energy (caution - metals only) :       -3314051.255228756 eV
  | For reference only, the value of 1 Hartree used in FHI-aims is :             27.211384500 eV
  | For reference only, the overall average (free atom contribution
  | + realspace contribution) of the electrostatic potential after
  | s.c.f. convergence is                                          :             -1.123623426 eV

  Before relying on these values, please be sure to understand exactly which
  total energy value is referred to by a given number. Different objects may
  all carry the same name 'total energy'. Definitions:

  Total energy of the DFT / Hartree-Fock s.c.f. calculation:
  | Note that this energy does not include ANY quantities calculated after the
  | s.c.f. cycle, in particular not ANY RPA, MP2, etc. many-body perturbation terms.

  Final zero-broadening corrected energy:
  | For metallic systems only, a broadening of the occupation numbers at the Fermi
  | level can be extrapolated back to zero broadening by an electron-gas inspired
  | formula. For all systems that are not real metals, this value can be
  | meaningless and should be avoided.

------------------------------------------------------------------------------
  Methods described in the following list of references were used in this FHI-aims run.
  If you publish the results, please make sure to cite these reference if they apply.
  FHI-aims is an academic code, and for our developers (often, Ph.D. students
  and postdocs), scientific credit in the community is essential.
  Thank you for helping us!

  For any use of FHI-aims, please cite:

    Volker Blum, Ralf Gehrke, Felix Hanke, Paula Havu, Ville Havu,
    Xinguo Ren, Karsten Reuter, and Matthias Scheffler
    'Ab initio molecular simulations with numeric atom-centered orbitals'
    Computer Physics Communications 180, 2175-2196 (2009)
    http://doi.org/10.1016/j.cpc.2009.06.022


  The provided symmetry information was generated with SPGlib:

    Atsushi Togo, Yusuke Seto, Dimitar Pashov
    SPGlib 1.7.3 obtained from http://spglib.sourceforge.net
    Copyright (C) 2008 Atsushi Togo


  The ELSI infrastructure was used in your run to solve the Kohn-Sham electronic structure.
  Please check out http://elsi-interchange.org to learn more.
  If scalability is important for your project, please acknowledge ELSI by citing:

    V. W-z. Yu, F. Corsetti, A. Garcia, W. P. Huhn, M. Jacquelin, W. Jia,
    B. Lange, L. Lin, J. Lu, W. Mi, A. Seifitokaldani, A. Vazquez-Mayagoitia,
    C. Yang, H. Yang, and V. Blum
    'ELSI: A unified software interface for Kohn-Sham electronic structure solvers'
    Computer Physics Communications 222, 267-285 (2018).
    http://doi.org/10.1016/j.cpc.2017.09.007


  For the real-space grid partitioning and parallelization used in this calculation, please cite:

    Ville Havu, Volker Blum, Paula Havu, and Matthias Scheffler,
    'Efficient O(N) integration for all-electron electronic structure calculation'
    'using numerically tabulated basis functions'
    Journal of Computational Physics 228, 8367-8379 (2009).
    http://doi.org/10.1016/j.jcp.2009.08.008

  Of course, there are many other important community references, e.g., those cited in the
  above references. Our list is limited to references that describe implementations in the
  FHI-aims code. The reason is purely practical (length of this list) - please credit others as well.

------------------------------------------------------------
          Leaving FHI-aims.
          Date     :  20220930, Time     :  125416.944

          Computational steps:
          | Number of self-consistency cycles          :           29
          | Number of SCF (re)initializations          :            1

          Detailed time accounting                     :  max(cpu_time)    wall_clock(cpu1)
          | Total time                                  :      404.773 s         404.839 s
          | Preparation time                            :        1.473 s           1.472 s
          | Boundary condition initalization            :        0.798 s           0.798 s
          | Grid partitioning                           :        0.795 s           0.795 s
          | Preloading free-atom quantities on grid     :        1.513 s           1.514 s
          | Free-atom superposition energy              :        0.029 s           0.029 s
          | Total time for integrations                 :       68.347 s          68.350 s
          | Total time for solution of K.-S. equations  :      138.339 s         138.334 s
          | Total time for density update               :      145.433 s         145.431 s
          | Total time for mixing & preconditioning     :       13.235 s          13.224 s
          | Total time for Hartree multipole update     :        0.361 s           0.363 s
          | Total time for Hartree multipole sum        :       26.553 s          26.551 s
          | Total time for total energy evaluation      :        0.030 s           0.052 s
          | Total time for scaled ZORA corrections      :        0.000 s           0.000 s
          | Total time for vdW correction               :        7.821 s           7.822 s
          | Total time for Mulliken analysis            :        0.435 s           0.448 s

          Partial memory accounting:
          | Residual value for overall tracked memory usage across tasks:     0.000000 MB (should be 0.000000 MB)
          | Peak values for overall tracked memory usage:
          |   Minimum:      268.280 MB (on task  22 after allocating temp_ham_ovlp)
          |   Maximum:      272.108 MB (on task   0 after allocating temp_ham_ovlp)
          |   Average:      271.364 MB
          | Largest tracked array allocation:
          |   Minimum:       92.640 MB (hamiltonian on task   0)
          |   Maximum:       92.640 MB (hamiltonian on task   0)
          |   Average:       92.640 MB
          Note:  These values currently only include a subset of arrays which are explicitly tracked.
          The "true" memory usage will be greater.

          Have a nice day.
------------------------------------------------------------
