------------------------------------------------------------
          Invoking FHI-aims ...

          When using FHI-aims, please cite the following reference:

            Volker Blum, Ralf Gehrke, Felix Hanke, Paula Havu,
            Ville Havu, Xinguo Ren, Karsten Reuter, and Matthias Scheffler,
            'Ab Initio Molecular Simulations with Numeric Atom-Centered Orbitals',
            Computer Physics Communications 180, 2175-2196 (2009)

          In addition, many other developments in FHI-aims are likely important for
          your particular application. A partial list of references is given at the end of
          this file. Thank you for giving credit to the authors of these developments.

          For any questions about FHI-aims, please visit our slack channel at

            https://fhi-aims.slack.com

          and our main development and support site at

            https://aims-git.rz-berlin.mpg.de .

          The latter site, in particular, has a wiki to collect information, as well
          as an issue tracker to log discussions, suggest improvements, and report issues
          or bugs. https://aims-git.rz-berlin.mpg.de is also the main development site
          of the project and all new and updated code versions can be obtained there.
          Please send an email to aims-coordinators@fhi-berlin.mpg.de and we will add
          you to these sites. They are for you and everyone is welcome there.

------------------------------------------------------------



  Date     :  20220913, Time     :  154346.586
  Time zero on CPU 1             :   0.326628900000000E+01  s.
  Internal wall clock time zero  :           432315826.586  s.

  FHI-aims created a unique identifier for this run for later identification
  aims_uuid : A27DFC28-08B9-4767-AC88-44B61EC46AE0

  Build configuration of the current instance of FHI-aims
  -------------------------------------------------------
  FHI-aims version      : 220117
  Commit number         : 0c0e6afe2
  CMake host system     : Linux-5.3.18-24.99-default
  CMake version         : 3.22.0
  Fortran compiler      : /mpcdf/soft/SLE_15/packages/x86_64/intel_oneapi/2021.4/mpi/2021.4.0/bin/mpiifort (Intel) version 2021.4.0.20210910
  Fortran compiler flags: -O3 -ip -fp-model precise
  C compiler            : /mpcdf/soft/SLE_15/packages/x86_64/intel/2021.4.0/bin/icc (Intel) version 2021.4.0.20210910
  C compiler flags      : -O3 -ip -fp-model precise
  C++ compiler          : /mpcdf/soft/SLE_15/packages/x86_64/intel/2021.4.0/bin/icpc (Intel) version 2021.4.0.20210910
  C++ compiler flags    : -O3 -ip -fp-model precise
  Using MPI
  Using ScaLAPACK
  Using LibXC
  Using i-PI
  Using RLSY
  Linking against: /mpcdf/soft/SLE_15/packages/x86_64/intel_oneapi/2021.4/mkl/latest/lib/intel64/libmkl_intel_lp64.so
                   /mpcdf/soft/SLE_15/packages/x86_64/intel_oneapi/2021.4/mkl/latest/lib/intel64/libmkl_sequential.so
                   /mpcdf/soft/SLE_15/packages/x86_64/intel_oneapi/2021.4/mkl/latest/lib/intel64/libmkl_core.so
                   /mpcdf/soft/SLE_15/packages/x86_64/intel_oneapi/2021.4/mkl/latest/lib/intel64/libmkl_blacs_intelmpi_lp64.so
                   /mpcdf/soft/SLE_15/packages/x86_64/intel_oneapi/2021.4/mkl/latest/lib/intel64/libmkl_scalapack_lp64.so

  Using      216 parallel tasks.
  Task        0 on host ravg1086 reporting.
  Task        1 on host ravg1086 reporting.
  Task        2 on host ravg1086 reporting.
  Task        3 on host ravg1086 reporting.
  Task        4 on host ravg1086 reporting.
  Task        5 on host ravg1086 reporting.
  Task        6 on host ravg1086 reporting.
  Task        7 on host ravg1086 reporting.
  Task        8 on host ravg1086 reporting.
  Task        9 on host ravg1086 reporting.
  Task       10 on host ravg1086 reporting.
  Task       11 on host ravg1086 reporting.
  Task       12 on host ravg1086 reporting.
  Task       13 on host ravg1086 reporting.
  Task       14 on host ravg1086 reporting.
  Task       15 on host ravg1086 reporting.
  Task       16 on host ravg1086 reporting.
  Task       17 on host ravg1086 reporting.
  Task       18 on host ravg1086 reporting.
  Task       19 on host ravg1086 reporting.
  Task       20 on host ravg1086 reporting.
  Task       21 on host ravg1086 reporting.
  Task       22 on host ravg1086 reporting.
  Task       23 on host ravg1086 reporting.
  Task       24 on host ravg1086 reporting.
  Task       25 on host ravg1086 reporting.
  Task       26 on host ravg1086 reporting.
  Task       27 on host ravg1086 reporting.
  Task       28 on host ravg1086 reporting.
  Task       29 on host ravg1086 reporting.
  Task       30 on host ravg1086 reporting.
  Task       31 on host ravg1086 reporting.
  Task       32 on host ravg1086 reporting.
  Task       33 on host ravg1086 reporting.
  Task       34 on host ravg1086 reporting.
  Task       35 on host ravg1086 reporting.
  Task       36 on host ravg1086 reporting.
  Task       37 on host ravg1086 reporting.
  Task       38 on host ravg1086 reporting.
  Task       39 on host ravg1086 reporting.
  Task       40 on host ravg1086 reporting.
  Task       41 on host ravg1086 reporting.
  Task       42 on host ravg1086 reporting.
  Task       43 on host ravg1086 reporting.
  Task       44 on host ravg1086 reporting.
  Task       45 on host ravg1086 reporting.
  Task       46 on host ravg1086 reporting.
  Task       47 on host ravg1086 reporting.
  Task       48 on host ravg1086 reporting.
  Task       49 on host ravg1086 reporting.
  Task       50 on host ravg1086 reporting.
  Task       51 on host ravg1086 reporting.
  Task       52 on host ravg1086 reporting.
  Task       53 on host ravg1086 reporting.
  Task       54 on host ravg1086 reporting.
  Task       55 on host ravg1086 reporting.
  Task       56 on host ravg1086 reporting.
  Task       57 on host ravg1086 reporting.
  Task       58 on host ravg1086 reporting.
  Task       59 on host ravg1086 reporting.
  Task       60 on host ravg1086 reporting.
  Task       61 on host ravg1086 reporting.
  Task       62 on host ravg1086 reporting.
  Task       63 on host ravg1086 reporting.
  Task       64 on host ravg1086 reporting.
  Task       65 on host ravg1086 reporting.
  Task       66 on host ravg1086 reporting.
  Task       67 on host ravg1086 reporting.
  Task       68 on host ravg1086 reporting.
  Task       69 on host ravg1086 reporting.
  Task       70 on host ravg1086 reporting.
  Task       71 on host ravg1086 reporting.
  Task       72 on host ravg1087 reporting.
  Task       73 on host ravg1087 reporting.
  Task       74 on host ravg1087 reporting.
  Task       75 on host ravg1087 reporting.
  Task       76 on host ravg1087 reporting.
  Task       77 on host ravg1087 reporting.
  Task       78 on host ravg1087 reporting.
  Task       79 on host ravg1087 reporting.
  Task       80 on host ravg1087 reporting.
  Task       81 on host ravg1087 reporting.
  Task       82 on host ravg1087 reporting.
  Task       83 on host ravg1087 reporting.
  Task       84 on host ravg1087 reporting.
  Task       85 on host ravg1087 reporting.
  Task       86 on host ravg1087 reporting.
  Task       87 on host ravg1087 reporting.
  Task       88 on host ravg1087 reporting.
  Task       89 on host ravg1087 reporting.
  Task       90 on host ravg1087 reporting.
  Task       91 on host ravg1087 reporting.
  Task       92 on host ravg1087 reporting.
  Task       93 on host ravg1087 reporting.
  Task       94 on host ravg1087 reporting.
  Task       95 on host ravg1087 reporting.
  Task       96 on host ravg1087 reporting.
  Task       97 on host ravg1087 reporting.
  Task       98 on host ravg1087 reporting.
  Task       99 on host ravg1087 reporting.
  Task      100 on host ravg1087 reporting.
  Task      101 on host ravg1087 reporting.
  Task      102 on host ravg1087 reporting.
  Task      103 on host ravg1087 reporting.
  Task      104 on host ravg1087 reporting.
  Task      105 on host ravg1087 reporting.
  Task      106 on host ravg1087 reporting.
  Task      107 on host ravg1087 reporting.
  Task      108 on host ravg1087 reporting.
  Task      109 on host ravg1087 reporting.
  Task      110 on host ravg1087 reporting.
  Task      111 on host ravg1087 reporting.
  Task      112 on host ravg1087 reporting.
  Task      113 on host ravg1087 reporting.
  Task      114 on host ravg1087 reporting.
  Task      115 on host ravg1087 reporting.
  Task      116 on host ravg1087 reporting.
  Task      117 on host ravg1087 reporting.
  Task      118 on host ravg1087 reporting.
  Task      119 on host ravg1087 reporting.
  Task      120 on host ravg1087 reporting.
  Task      121 on host ravg1087 reporting.
  Task      122 on host ravg1087 reporting.
  Task      123 on host ravg1087 reporting.
  Task      124 on host ravg1087 reporting.
  Task      125 on host ravg1087 reporting.
  Task      126 on host ravg1087 reporting.
  Task      127 on host ravg1087 reporting.
  Task      128 on host ravg1087 reporting.
  Task      129 on host ravg1087 reporting.
  Task      130 on host ravg1087 reporting.
  Task      131 on host ravg1087 reporting.
  Task      132 on host ravg1087 reporting.
  Task      133 on host ravg1087 reporting.
  Task      134 on host ravg1087 reporting.
  Task      135 on host ravg1087 reporting.
  Task      136 on host ravg1087 reporting.
  Task      137 on host ravg1087 reporting.
  Task      138 on host ravg1087 reporting.
  Task      139 on host ravg1087 reporting.
  Task      140 on host ravg1087 reporting.
  Task      141 on host ravg1087 reporting.
  Task      142 on host ravg1087 reporting.
  Task      143 on host ravg1087 reporting.
  Task      144 on host ravg1088 reporting.
  Task      145 on host ravg1088 reporting.
  Task      146 on host ravg1088 reporting.
  Task      147 on host ravg1088 reporting.
  Task      148 on host ravg1088 reporting.
  Task      149 on host ravg1088 reporting.
  Task      150 on host ravg1088 reporting.
  Task      151 on host ravg1088 reporting.
  Task      152 on host ravg1088 reporting.
  Task      153 on host ravg1088 reporting.
  Task      154 on host ravg1088 reporting.
  Task      155 on host ravg1088 reporting.
  Task      156 on host ravg1088 reporting.
  Task      157 on host ravg1088 reporting.
  Task      158 on host ravg1088 reporting.
  Task      159 on host ravg1088 reporting.
  Task      160 on host ravg1088 reporting.
  Task      161 on host ravg1088 reporting.
  Task      162 on host ravg1088 reporting.
  Task      163 on host ravg1088 reporting.
  Task      164 on host ravg1088 reporting.
  Task      165 on host ravg1088 reporting.
  Task      166 on host ravg1088 reporting.
  Task      167 on host ravg1088 reporting.
  Task      168 on host ravg1088 reporting.
  Task      169 on host ravg1088 reporting.
  Task      170 on host ravg1088 reporting.
  Task      171 on host ravg1088 reporting.
  Task      172 on host ravg1088 reporting.
  Task      173 on host ravg1088 reporting.
  Task      174 on host ravg1088 reporting.
  Task      175 on host ravg1088 reporting.
  Task      176 on host ravg1088 reporting.
  Task      177 on host ravg1088 reporting.
  Task      178 on host ravg1088 reporting.
  Task      179 on host ravg1088 reporting.
  Task      180 on host ravg1088 reporting.
  Task      181 on host ravg1088 reporting.
  Task      182 on host ravg1088 reporting.
  Task      183 on host ravg1088 reporting.
  Task      184 on host ravg1088 reporting.
  Task      185 on host ravg1088 reporting.
  Task      186 on host ravg1088 reporting.
  Task      187 on host ravg1088 reporting.
  Task      188 on host ravg1088 reporting.
  Task      189 on host ravg1088 reporting.
  Task      190 on host ravg1088 reporting.
  Task      191 on host ravg1088 reporting.
  Task      192 on host ravg1088 reporting.
  Task      193 on host ravg1088 reporting.
  Task      194 on host ravg1088 reporting.
  Task      195 on host ravg1088 reporting.
  Task      196 on host ravg1088 reporting.
  Task      197 on host ravg1088 reporting.
  Task      198 on host ravg1088 reporting.
  Task      199 on host ravg1088 reporting.
  Task      200 on host ravg1088 reporting.
  Task      201 on host ravg1088 reporting.
  Task      202 on host ravg1088 reporting.
  Task      203 on host ravg1088 reporting.
  Task      204 on host ravg1088 reporting.
  Task      205 on host ravg1088 reporting.
  Task      206 on host ravg1088 reporting.
  Task      207 on host ravg1088 reporting.
  Task      208 on host ravg1088 reporting.
  Task      209 on host ravg1088 reporting.
  Task      210 on host ravg1088 reporting.
  Task      211 on host ravg1088 reporting.
  Task      212 on host ravg1088 reporting.
  Task      213 on host ravg1088 reporting.
  Task      214 on host ravg1088 reporting.
  Task      215 on host ravg1088 reporting.

  Performing system and environment tests:
  | Environment variable OMP_NUM_THREADS correctly set to 1.
  | Checking for ScaLAPACK...
  | Testing pdtran()...
  | All pdtran() tests passed.

  Obtaining array dimensions for all initial allocations:
  
  -----------------------------------------------------------------------
  Parsing control.in (first pass over file, find array dimensions only).
  The contents of control.in will be repeated verbatim below
  unless switched off by setting 'verbatim_writeout .false.' .
  in the first line of control.in .
  -----------------------------------------------------------------------
  
  xc                 hse06  0.11
  hse_unit b
  spin               collinear
  default_initial_moment 1
  charge      0.0
  relativistic       atomic_zora scalar
  #elsi_restart read
  # SCF settings
  relax_geometry bfgs 1E-3
  #relax_unit_cell fixed_angles
  use_symmetric_forces .true.
  occupation_type gaussian       0.1
  # k-grid settings  (to be adjusted)
  k_grid  4 4 1
  #empty_states 8
  use_dipole_correction
  include_spin_orbit non_self_consistent
  # sc_accuracy_rho    1E-4
  #    sc_accuracy_eev    1E-3
  #    sc_accuracy_etot   1E-4
  #    sc_accuracy_forces 1E-2
  many_body_dispersion_nl    beta=0.83
  ################################################################################
  #
  #  FHI-aims code project
  #  Volker Blum, 2018
  #
  #  Suggested "intermediate" defaults for Se atom (to be pasted into control.in file)
  #
  #  2020/09/15 These "intermediate" settings are identical to past "tight" defaults
  #             and differ only in the "g" function that is now included in "tight".
  #
  ################################################################################
    species        Se
  #     global species definitions
      nucleus             34
      mass                78.96
  #
      l_hartree           6
  #
      cut_pot             4.0          2.0  1.0
      basis_dep_cutoff    1e-4
  #
      radial_base         55 7.0
      radial_multiplier   2
      angular_grids       specified
        division   0.0830  110
        division   0.1357  194
        division   0.7377  302
        division   0.8610  434
  #      division   0.9640  590
  #      division   1.0773  770
  #      division   2.5539  974
  #      outer_grid  974
        outer_grid  434
  ################################################################################
  #
  #  Definition of "minimal" basis
  #
  ################################################################################
  #     valence basis states
      valence      4  s   2.
      valence      4  p   4.
      valence      3  d  10.
  #     ion occupancy
      ion_occ      4  s   1.
      ion_occ      4  p   3.
      ion_occ      3  d  10.
  ################################################################################
  #
  #  Suggested additional basis functions. For production calculations,
  #  uncomment them one after another (the most important basis functions are
  #  listed first).
  #
  #  Constructed for dimers: 1.85 A, 2.15 A, 2.50 A, 3.00 A, 4.00 A
  #
  ################################################################################
  #  "First tier" - improvements: -336.21 meV to -36.85 meV
       hydro 3 d 4.3
       hydro 2 p 1.6
       hydro 4 f 7.2
       ionic 4 s auto
  #  "Second tier" - improvements: -14.39 meV to -1.49 meV
  #     hydro 5 g 10.4
  #     hydro 4 p 4.5
  #     hydro 4 d 6.2
  #     hydro 4 f 11.2
  #     hydro 1 s 0.65
  #     hydro 6 h 15.2
  #  "Third tier" - improvements: -0.46 meV and below
  #     hydro 5 g 14.4
  #     ionic 4 d auto
  #     hydro 4 f 22.4
  #     hydro 5 f 7.4
  #     hydro 5 p 8
  #     hydro 5 s 9.4
  #  "Fourth tier" - improvements: -0.12 meV and below
  #     hydro 5 d 11.6
  #     hydro 6 h 18
  #     hydro 4 p 4
  #     hydro 5 f 16
  #     hydro 4 s 3.9
  
  
  ################################################################################
  #
  #  FHI-aims code project
  #  Volker Blum, 2018
  #
  #  Suggested "intermediate" defaults for S atom (to be pasted into control.in file)
  #
  ################################################################################
    species        S
  #     global species definitions
      nucleus             16
      mass                32.065
  #
      l_hartree           6
  #
      cut_pot             4.0          2.0  1.0
      basis_dep_cutoff    1e-4
  #
      radial_base         44 7.0
      radial_multiplier   2
      angular_grids       specified
        division   0.4665  110
        division   0.5810  194
        division   0.7139  302
        division   0.8274  434
  #      division   0.9105  590
  #      division   1.0975  770
  #      division   1.2028  974
  #      outer_grid  974
        outer_grid  434
  ################################################################################
  #
  #  Definition of "minimal" basis
  #
  ################################################################################
  #     valence basis states
      valence      3  s   2.
      valence      3  p   4.
  #     ion occupancy
      ion_occ      3  s   1.
      ion_occ      3  p   3.
  ################################################################################
  #
  #  Suggested additional basis functions. For production calculations,
  #  uncomment them one after another (the most important basis functions are
  #  listed first).
  #
  #  Constructed for dimers: 1.6 A, 1.9 A, 2.5 A, 3.25 A, 4.0 A
  #
  ################################################################################
  #  "First tier" - improvements: -652.81 meV to -45.53 meV
       ionic 3 d auto
       hydro 2 p 1.8
       hydro 4 f 7
       ionic 3 s auto
  #  "Second tier" - improvements: -30.20 meV to -1.74 meV
  #     hydro 4 d 6.2
  for_aux     hydro 5 g 10.8
  #     hydro 4 p 4.9
  #     hydro 5 f 10
  #     hydro 1 s 0.8
  #  "Third tier" - improvements: -1.04 meV to -0.20 meV
  #     hydro 3 d 3.9
  #     hydro 3 d 2.7
  #     hydro 5 g 12
  #     hydro 4 p 10.4
  #     hydro 5 f 12.4
  #     hydro 2 s 1.9
  #  "Fourth tier" - improvements: -0.35 meV to -0.06 meV
  #     hydro 4 d 10.4
  #     hydro 4 p 7.2
  #     hydro 4 d 10
  #     hydro 5 g 19.2
  #     hydro 4 s 12
  
  ################################################################################
  #
  #  FHI-aims code project
  # Volker Blum, Fritz Haber Institute Berlin, 2009
  #
  #  Suggested "intermediate" defaults for Mo atom (to be pasted into control.in file)
  #
  #  See https://aaltodoc.aalto.fi/handle/123456789/33620 for the report these
  #  setting are based on
  ################################################################################
    species        Mo
  #     global species definitions
      nucleus             42
      mass                95.94
  #
      l_hartree           6
  #
      cut_pot             4.0  2.0  1.0
      basis_dep_cutoff    1e-4
  #
      radial_base         59 7.0
      radial_multiplier   2
      angular_grids specified
        division   0.3117   50
        division   0.6750  110
        division   1.0351  194
        division   1.2073  302
        division   1.6402  434
  #      division   1.9185  590
  #      division   2.0237  770
  #      division   2.0980  974
  #      division   2.7972 1202
  #      outer_grid  974
        outer_grid  434
  ################################################################################
  #
  #  Definition of "minimal" basis
  #
  ################################################################################
  #     valence basis states
      valence      5  s   1.
      valence      4  p   6.
      valence      4  d   5.
  #     ion occupancy
      ion_occ     5  s   0.
      ion_occ     4  p   6.
      ion_occ     4  d   4.
  ################################################################################
  #
  #  Suggested additional basis functions. For production calculations,
  #  uncomment them one after another (the most important basis functions are
  #  listed first).
  #
  #  Constructed for dimers: 1.675 A, 1.9 A, 2.375 A, 3.00 A, 4.00 A
  #
  ################################################################################
  #  "First tier"  - max. impr. -711.23  meV, min. impr. -21.07 meV
       hydro 4 f 8.4
       hydro 3 d 2.8
       ionic 5 p auto
       for_aux hydro 5 g 12
       ionic 5 s auto
  #  "Second tier" - max. impr. -39.38  meV, min. impr. -2.68 meV
  #     hydro 4 f 12.4
  #     hydro 3 d 3.3
  #     hydro 6 h 17.2
  #     hydro 4 f 7.6
  #     hydro 3 p 3.0
  #     hydro 1 s 0.65
  #  "Third tier"  - max. impr. -5.50 meV, min. impr. -0.47 meV
  #     hydro 4 f 29.2
  #     hydro 5 g 11.2
  #     hydro 3 d 6.8
  #     hydro 6 h 14.8
  #     hydro 2 p 2.3
  #     hydro 4 s 3.8
  #  "Fourth tier"  - max. impr. -0.58 meV, min. impr. -0.19 meV
  #     hydro 5 f 6.8
  #     hydro 5 d 14.8
  #     hydro 6 s 7.8
  #     hydro 5 g 20.8
  #     hydro 5 d 10.4
  #     hydro 5 p 9.8
  #  Further functions - -0.17 meV and below
  #     hydro 5 d 3.2
  ################################################################################
  #
  #  FHI-aims code project
  #  Volker Blum, Maria Dragoumi, Sebastian Kokott 2020
  #
  #  Suggested "intermediate" defaults for W atom (to be pasted into control.in file)
  #
  ################################################################################
    species          W
  #     global species definitions
      nucleus        74
      mass           183.84
  #
      l_hartree      6
  #
      cut_pot        4.0  2.0  1.0
      basis_dep_cutoff    1e-4
  #
      radial_base    71  7.0
      radial_multiplier  2
      angular_grids specified
        division   0.2901   50
        division   0.6986  110
        division   1.0528  194
        division   1.2659  302
        division   1.5223  434
  #      division   1.8111  590
  #      division   2.0105  770
  #      division   2.0413  974
  #      division   2.8804 1202
  #      outer_grid  974
        outer_grid  434
  ################################################################################
  #
  #  Definition of "minimal" basis
  #
  ################################################################################
  #     valence basis states
      valence      6  s   2.
      valence      5  p   6.
      valence      5  d   4.
      valence      4  f  14.
  #     ion occupancy
      ion_occ      6  s   1.
      ion_occ      5  p   6.
      ion_occ      5  d   3.
      ion_occ      4  f  14.
  ################################################################################
  #
  #  Suggested additional basis functions. For production calculations,
  #  uncomment them one after another (the most important basis functions are
  #  listed first).
  #
  #  Constructed for dimers: 1.775, 1.99, 2.50, 3.25, 4.50 AA
  #
  ################################################################################
  #
  #  "First tier" - improvements: -603.77 meV to -28.99 meV
       hydro 4 f 7.8
       hydro 4 d 5.8
       ionic 6 p auto
    for_aux   hydro 5 g 12.4
       ionic 6 s auto
  #  "Second tier" - improvements: -28.30 meV to -1.31 meV
  #     hydro 6 h 16.8
  #     ionic 5 d auto
  #     hydro 4 f 8.6
  #     hydro 5 g 16.8
  #     hydro 5 d 8.4
  #     hydro 3 p 3.3
  #     hydro 1 s 0.55
  #  "Third tier" - max. impr. -1.79 meV, min. impr. -0.26 meV
  #     hydro 5 f 10.8
  #     hydro 5 g 34.4
  #     hydro 6 h 20.8
  #     hydro 5 g 12.8
  #     hydro 2 p 1.6
  #     hydro 4 s 4.7
  #     hydro 6 d 18.4
  #  "Fourth tier" -0.46 max. impr. - meV, min. impr. -0.09 meV
  #     hydro 6 h 21.6
  #     hydro 5 f 22.4
  #     hydro 4 f 4
  #     hydro 5 p 9.6
  #     hydro 6 d 17.2
  #     hydro 3 p 5.2
  #     hydro 5 g 4.7
  #     hydro 6 s 7.6
  
  -----------------------------------------------------------------------
  Completed first pass over input file control.in .
  -----------------------------------------------------------------------
  
  
  -----------------------------------------------------------------------
  Parsing geometry.in (first pass over file, find array dimensions only).
  The contents of geometry.in will be repeated verbatim below
  unless switched off by setting 'verbatim_writeout .false.' .
  in the first line of geometry.in .
  -----------------------------------------------------------------------
  
  #
  # This is the geometry file that corresponds to the current relaxation step.
  # If you do not want this file to be written, set the "write_restart_geometry" flag to .false.
  #  aims_uuid : F6584358-7A96-4D0D-A68B-7182D961A7CA
  #
    set_vacuum_level         0.002315
  lattice_vector     15.72847685      0.00000000      0.00000000
  lattice_vector     -7.86461685     13.62035640      0.00000000
  lattice_vector      0.00000000      0.00000000    103.13570646
  atom       0.00109613      0.90670079     51.59679565 W
  atom       1.58560798      1.83136133     53.15290625 S
  atom       1.56585224      1.82092066     50.02130046 S
  atom      -1.56981366      3.63325480     51.60281892 W
  atom       0.01805919      4.54995825     53.15849276 S
  atom      -0.00556890      4.53625710     50.02385353 S
  atom      -3.14587151      6.35684349     51.59675098 W
  atom      -1.55276150      7.26661205     53.15284221 S
  atom      -1.57167671      7.25470498     50.02122256 S
  atom      -4.72580386      9.07566867     51.57897432 W
  atom      -3.14595585      9.98473181     53.14402130 S
  atom      -3.14595369      9.98389176     50.01491429 S
  atom      -6.29863088     11.79954113     51.57899027 W
  atom      -4.72135818     12.71303878     53.14405493 S
  atom      -4.72209515     12.71350679     50.01494242 S
  atom       3.14577092      0.91537633     51.57904076 W
  atom       4.71850465      1.84985516     53.12975133 S
  atom       4.71850284      1.81359581     50.00230589 S
  atom       1.58159907      3.64882001     51.57944703 W
  atom       3.19524216      4.62102262     53.10337881 S
  atom       3.13104658      4.55681066     49.97116569 S
  atom       0.01932122      6.35450250     51.57938742 W
  atom       1.66816126      7.26569909     53.10331029 S
  atom       1.58053082      7.24216324     49.97110945 S
  atom      -1.56607914      9.07567280     51.57897685 W
  atom       0.02966843      9.97030312     53.12967455 S
  atom      -0.00174037      9.98845279     50.00224076 S
  atom      -3.14601838     11.80366149     51.57929963 W
  atom      -1.57070718     12.71304294     53.14405372 S
  atom      -1.56996293     12.71350558     50.01494770 S
  atom       6.29127327      0.91538409     51.57903830 W
  atom       7.85140756      1.83135476     53.15290571 S
  atom       7.87116169      1.82091957     50.02129110 S
  atom       4.71845212      3.66168638     51.53969615 W
  atom       6.24161571      4.62100699     53.10339040 S
  atom       6.30580330      4.55682014     49.97116770 S
  atom       3.21317237      6.39452268     51.49005650 W
  atom       4.71835779      7.26343720     49.87240054 S
  atom       1.59887324      9.06443173     51.53961285 W
  atom       3.19132127      9.90374519     53.10330673 S
  atom       3.16783102      9.99142965     49.97107437 S
  atom       0.00660859     11.79954909     51.57900069 W
  atom       1.58001890     12.69251537     53.15286456 S
  atom       1.58083708     12.71488046     50.02125214 S
  atom       9.43594315      0.90669526     51.59679386 W
  atom      11.00532920      1.81272412     53.16962645 S
  atom      11.01228180      1.81674159     50.03653151 S
  atom       7.85527860      3.64880783     51.57944624 W
  atom       9.41879109      4.54995151     53.15849421 S
  atom       9.44241814      4.53625350     50.02386148 S
  atom       6.22355196      6.39450911     51.49007399 W
  atom       7.76853841      7.26569844     53.10331679 S
  atom       7.85616409      7.24215529     49.97112137 S
  atom       4.71829132      9.00147030     51.48999702 W
  atom       6.24524527      9.90372126     53.10330395 S
  atom       6.26873665      9.99143468     49.97107662 S
  atom       3.15604180     11.78725439     51.57937545 W
  atom       4.71820224     12.69064609     53.15846382 S
  atom       4.71821075     12.71796551     50.02381837 S
  atom      12.58275861      0.90375049     51.60281540 W
  atom      14.16015702      1.81272600     53.16962698 S
  atom      14.15320859      1.81674055     50.03652824 S
  atom      11.00669739      3.63325642     51.60282003 W
  atom      12.58266629      4.54474771     53.16960977 S
  atom      12.58266715      4.53667128     50.03651619 S
  atom       9.41741107      6.35450447     51.57938461 W
  atom      10.98947055      7.26660772     53.15284297 S
  atom      11.00838367      7.25469855     50.02122151 S
  atom       7.83773527      9.06442966     51.53961084 W
  atom       9.40690182      9.97030121     53.12967559 S
  atom       9.43831016      9.98844748     50.00223026 S
  atom       6.28040075     11.78725281     51.57939192 W
  atom       7.85640514     12.69251144     53.15286137 S
  atom       7.85557187     12.71487986     50.02125913 S
  #
  # What follows is the current estimated Hessian matrix constructed by the BFGS algorithm.
  # This is NOT the true Hessian matrix of the system.
  # If you do not want this information here, switch it off using the "hessian_to_restart_geometry" keyword.
  #
  
  -----------------------------------------------------------------------
  Completed first pass over input file geometry.in .
  -----------------------------------------------------------------------
  

  Basic array size parameters:
  | Number of species                 :        4
  | Number of atoms                   :       74
  | Number of lattice vectors         :        3
  | Max. basis fn. angular momentum   :        4
  | Max. atomic/ionic basis occupied n:        6
  | Max. number of basis fn. types    :        3
  | Max. radial fns per species/type  :       14
  | Max. logarithmic grid size        :     1483
  | Max. radial integration grid size :      143
  | Max. angular integration grid size:      434
  | Max. angular grid division number :        8
  | Radial grid for Hartree potential :     1483
  | Number of spin channels           :        2

------------------------------------------------------------
          Reading file control.in.
------------------------------------------------------------

  XC: Using HSE-functional with OMEGA =  0.110000E+00 <units>.
  XC: For the actual units (bohr^-1 or Angstrom^-1), see below.
  hse_unit: Unit for the HSE06 hybrid functional screening parameter set to bohr^(-1).
  Spin treatment: Spin density functional theory - collinear spins.
  Initial spin moment per atom:   1.0000
  Charge =   0.000000E+00: Neutral system requested explicitly.
  Scalar relativistic treatment of kinetic energy: on-site free-atom approximation to ZORA.
  Geometry relaxation: Modified BFGS - TRM (trust radius method) for lattice optimization.
  Convergence accuracy for geometry relaxation: Maximum force <   0.100000E-02 eV/A.
  Occupation type: Gaussian broadening, width =   0.100000E+00 eV.
  Found k-point grid:         4         4         1
  Using dipole correction.
  Calculating non-self-consistent second-variational spin-orbit coupling after scf-cycle
  You have request a SOC run with spin-polarization.
  symmetry_reduced_k_grid will be turned off.
  Using libMBD for calculating MBD and TS energies
 
  Reading configuration options for species Se                  .
  | Found nuclear charge :  34.0000
  | Found atomic mass :    78.9600000000000      amu
  | Found l_max for Hartree potential  :   6
  | Found cutoff potl. onset [A], width [A], scale factor :    4.00000    2.00000    1.00000
  | Threshold for basis-dependent cutoff potential is   0.100000E-03
  | Found data for basic radial integration grid :    55 points, outermost radius =    7.000 A
  | Found multiplier for basic radial grid :   2
  | Found angular grid specification: user-specified.
  | Specified grid contains     5 separate shells.
  | Check grid settings after all constraints further below.
  | Found free-atom valence shell :  4 s   2.000
  | Found free-atom valence shell :  4 p   4.000
  | Found free-atom valence shell :  3 d  10.000
  | Found free-ion valence shell :  4 s   1.000
  | Found free-ion valence shell :  4 p   3.000
  | Found free-ion valence shell :  3 d  10.000
  | Found hydrogenic basis function :  3 d   4.300
  | Found hydrogenic basis function :  2 p   1.600
  | Found hydrogenic basis function :  4 f   7.200
  | Found ionic basis function :  4 s , default cutoff radius.
  Species Se                  : Missing cutoff potential type.
  Defaulting to exp(1/x)/(1-x)^2 type cutoff potential.
  Species Se: No 'logarithmic' tag. Using default grid for free atom:
  | Default logarithmic grid data [bohr] : 0.1000E-03 0.1000E+03 0.1012E+01
  | Will include ionic basis functions of  2.0-fold positive Se                   ion.
  Species Se: On-site basis accuracy parameter (for Gram-Schmidt orthonormalisation) not specified.
  Using default value basis_acc =  0.1000000E-03.
  Species Se                  : Using default innermost maximum threshold i_radial=  2 for radial functions.
  Species Se                  : Default cutoff onset for free atom density etc. : 0.40000000E+01 AA.
  Species Se                  : Basic radial grid will be enhanced according to radial_multiplier =   2, to contain   111 grid points.
 
  Reading configuration options for species S                   .
  | Found nuclear charge :  16.0000
  | Found atomic mass :    32.0650000000000      amu
  | Found l_max for Hartree potential  :   6
  | Found cutoff potl. onset [A], width [A], scale factor :    4.00000    2.00000    1.00000
  | Threshold for basis-dependent cutoff potential is   0.100000E-03
  | Found data for basic radial integration grid :    44 points, outermost radius =    7.000 A
  | Found multiplier for basic radial grid :   2
  | Found angular grid specification: user-specified.
  | Specified grid contains     5 separate shells.
  | Check grid settings after all constraints further below.
  | Found free-atom valence shell :  3 s   2.000
  | Found free-atom valence shell :  3 p   4.000
  | Found free-ion valence shell :  3 s   1.000
  | Found free-ion valence shell :  3 p   3.000
  | Found ionic basis function :  3 d , default cutoff radius.
  | Found hydrogenic basis function :  2 p   1.800
  | Found hydrogenic basis function :  4 f   7.000
  | Found ionic basis function :  3 s , default cutoff radius.
  | Found hydrogenic extended basis function :  5 g  10.800
  Species S                   : Missing cutoff potential type.
  Defaulting to exp(1/x)/(1-x)^2 type cutoff potential.
  Species S : No 'logarithmic' tag. Using default grid for free atom:
  | Default logarithmic grid data [bohr] : 0.1000E-03 0.1000E+03 0.1012E+01
  | Will include ionic basis functions of  2.0-fold positive S                    ion.
  Species S : On-site basis accuracy parameter (for Gram-Schmidt orthonormalisation) not specified.
  Using default value basis_acc =  0.1000000E-03.
  Species S                   : Using default innermost maximum threshold i_radial=  2 for radial functions.
  Species S                   : Default cutoff onset for free atom density etc. : 0.40000000E+01 AA.
  Species S                   : Basic radial grid will be enhanced according to radial_multiplier =   2, to contain    89 grid points.
 
  Reading configuration options for species Mo                  .
  | Found nuclear charge :  42.0000
  | Found atomic mass :    95.9400000000000      amu
  | Found l_max for Hartree potential  :   6
  | Found cutoff potl. onset [A], width [A], scale factor :    4.00000    2.00000    1.00000
  | Threshold for basis-dependent cutoff potential is   0.100000E-03
  | Found data for basic radial integration grid :    59 points, outermost radius =    7.000 A
  | Found multiplier for basic radial grid :   2
  | Found angular grid specification: user-specified.
  | Specified grid contains     6 separate shells.
  | Check grid settings after all constraints further below.
  | Found free-atom valence shell :  5 s   1.000
  | Found free-atom valence shell :  4 p   6.000
  | Found free-atom valence shell :  4 d   5.000
  | Found free-ion valence shell :  5 s   0.000
  | Found free-ion valence shell :  4 p   6.000
  | Found free-ion valence shell :  4 d   4.000
  | Found hydrogenic basis function :  4 f   8.400
  | Found hydrogenic basis function :  3 d   2.800
  | Found ionic basis function :  5 p , default cutoff radius.
  | Found hydrogenic extended basis function :  5 g  12.000
  | Found ionic basis function :  5 s , default cutoff radius.
  Species Mo                  : Missing cutoff potential type.
  Defaulting to exp(1/x)/(1-x)^2 type cutoff potential.
  Species Mo: No 'logarithmic' tag. Using default grid for free atom:
  | Default logarithmic grid data [bohr] : 0.1000E-03 0.1000E+03 0.1012E+01
  | Will include ionic basis functions of  2.0-fold positive Mo                   ion.
  Species Mo: On-site basis accuracy parameter (for Gram-Schmidt orthonormalisation) not specified.
  Using default value basis_acc =  0.1000000E-03.
  Species Mo                  : Using default innermost maximum threshold i_radial=  2 for radial functions.
  Species Mo                  : Default cutoff onset for free atom density etc. : 0.40000000E+01 AA.
  Species Mo                  : Basic radial grid will be enhanced according to radial_multiplier =   2, to contain   119 grid points.
 
  Reading configuration options for species W                   .
  | Found nuclear charge :  74.0000
  | Found atomic mass :    183.840000000000      amu
  | Found l_max for Hartree potential  :   6
  | Found cutoff potl. onset [A], width [A], scale factor :    4.00000    2.00000    1.00000
  | Threshold for basis-dependent cutoff potential is   0.100000E-03
  | Found data for basic radial integration grid :    71 points, outermost radius =    7.000 A
  | Found multiplier for basic radial grid :   2
  | Found angular grid specification: user-specified.
  | Specified grid contains     6 separate shells.
  | Check grid settings after all constraints further below.
  | Found free-atom valence shell :  6 s   2.000
  | Found free-atom valence shell :  5 p   6.000
  | Found free-atom valence shell :  5 d   4.000
  | Found free-atom valence shell :  4 f  14.000
  | Found free-ion valence shell :  6 s   1.000
  | Found free-ion valence shell :  5 p   6.000
  | Found free-ion valence shell :  5 d   3.000
  | Found free-ion valence shell :  4 f  14.000
  | Found hydrogenic basis function :  4 f   7.800
  | Found hydrogenic basis function :  4 d   5.800
  | Found ionic basis function :  6 p , default cutoff radius.
  | Found hydrogenic extended basis function :  5 g  12.400
  | Found ionic basis function :  6 s , default cutoff radius.
  Species W                   : Missing cutoff potential type.
  Defaulting to exp(1/x)/(1-x)^2 type cutoff potential.
  Species W : No 'logarithmic' tag. Using default grid for free atom:
  | Default logarithmic grid data [bohr] : 0.1000E-03 0.1000E+03 0.1012E+01
  | Will include ionic basis functions of  2.0-fold positive W                    ion.
  Species W : On-site basis accuracy parameter (for Gram-Schmidt orthonormalisation) not specified.
  Using default value basis_acc =  0.1000000E-03.
  Species W                   : Using default innermost maximum threshold i_radial=  2 for radial functions.
  Species W                   : Default cutoff onset for free atom density etc. : 0.40000000E+01 AA.
  Species W                   : Basic radial grid will be enhanced according to radial_multiplier =   2, to contain   143 grid points.
 
  Finished reading input file 'control.in'.
 
------------------------------------------------------------


------------------------------------------------------------
          Reading geometry description geometry.in.
------------------------------------------------------------
  Vacuum level in z-axis :   0.231500E-02
  | The smallest distance between any two atoms is         2.37431620 AA.
  | The first atom of this pair is atom number                     38 .
  | The second atom of this pair is atom number                    54 .
  | Wigner-Seitz cell of the first atom image           0     0     0 .
  | (The Wigner-Seitz cell of the second atom is 0 0 0  by definition.)

  Symmetry information by spglib:
  | Precision set to  0.1E-04
  | Number of Operations  : 1
  | Space group           : 1
  | International         : P1
  | Schoenflies           : C1^1
  Input structure read successfully.
  The structure contains       74 atoms,  and a total of       2634.000 electrons.

  Input geometry:
  | Unit cell:
  |       15.72847685        0.00000000        0.00000000
  |       -7.86461685       13.62035640        0.00000000
  |        0.00000000        0.00000000      103.13570646
  | Atomic structure:
  |       Atom                x [A]            y [A]            z [A]
  |    1: Species W             0.00109613        0.90670079       51.59679565
  |    2: Species S             1.58560798        1.83136133       53.15290625
  |    3: Species S             1.56585224        1.82092066       50.02130046
  |    4: Species W            -1.56981366        3.63325480       51.60281892
  |    5: Species S             0.01805919        4.54995825       53.15849276
  |    6: Species S            -0.00556890        4.53625710       50.02385353
  |    7: Species W            -3.14587151        6.35684349       51.59675098
  |    8: Species S            -1.55276150        7.26661205       53.15284221
  |    9: Species S            -1.57167671        7.25470498       50.02122256
  |   10: Species W            -4.72580386        9.07566867       51.57897432
  |   11: Species S            -3.14595585        9.98473181       53.14402130
  |   12: Species S            -3.14595369        9.98389176       50.01491429
  |   13: Species W            -6.29863088       11.79954113       51.57899027
  |   14: Species S            -4.72135818       12.71303878       53.14405493
  |   15: Species S            -4.72209515       12.71350679       50.01494242
  |   16: Species W             3.14577092        0.91537633       51.57904076
  |   17: Species S             4.71850465        1.84985516       53.12975133
  |   18: Species S             4.71850284        1.81359581       50.00230589
  |   19: Species W             1.58159907        3.64882001       51.57944703
  |   20: Species S             3.19524216        4.62102262       53.10337881
  |   21: Species S             3.13104658        4.55681066       49.97116569
  |   22: Species W             0.01932122        6.35450250       51.57938742
  |   23: Species S             1.66816126        7.26569909       53.10331029
  |   24: Species S             1.58053082        7.24216324       49.97110945
  |   25: Species W            -1.56607914        9.07567280       51.57897685
  |   26: Species S             0.02966843        9.97030312       53.12967455
  |   27: Species S            -0.00174037        9.98845279       50.00224076
  |   28: Species W            -3.14601838       11.80366149       51.57929963
  |   29: Species S            -1.57070718       12.71304294       53.14405372
  |   30: Species S            -1.56996293       12.71350558       50.01494770
  |   31: Species W             6.29127327        0.91538409       51.57903830
  |   32: Species S             7.85140756        1.83135476       53.15290571
  |   33: Species S             7.87116169        1.82091957       50.02129110
  |   34: Species W             4.71845212        3.66168638       51.53969615
  |   35: Species S             6.24161571        4.62100699       53.10339040
  |   36: Species S             6.30580330        4.55682014       49.97116770
  |   37: Species W             3.21317237        6.39452268       51.49005650
  |   38: Species S             4.71835779        7.26343720       49.87240054
  |   39: Species W             1.59887324        9.06443173       51.53961285
  |   40: Species S             3.19132127        9.90374519       53.10330673
  |   41: Species S             3.16783102        9.99142965       49.97107437
  |   42: Species W             0.00660859       11.79954909       51.57900069
  |   43: Species S             1.58001890       12.69251537       53.15286456
  |   44: Species S             1.58083708       12.71488046       50.02125214
  |   45: Species W             9.43594315        0.90669526       51.59679386
  |   46: Species S            11.00532920        1.81272412       53.16962645
  |   47: Species S            11.01228180        1.81674159       50.03653151
  |   48: Species W             7.85527860        3.64880783       51.57944624
  |   49: Species S             9.41879109        4.54995151       53.15849421
  |   50: Species S             9.44241814        4.53625350       50.02386148
  |   51: Species W             6.22355196        6.39450911       51.49007399
  |   52: Species S             7.76853841        7.26569844       53.10331679
  |   53: Species S             7.85616409        7.24215529       49.97112137
  |   54: Species W             4.71829132        9.00147030       51.48999702
  |   55: Species S             6.24524527        9.90372126       53.10330395
  |   56: Species S             6.26873665        9.99143468       49.97107662
  |   57: Species W             3.15604180       11.78725439       51.57937545
  |   58: Species S             4.71820224       12.69064609       53.15846382
  |   59: Species S             4.71821075       12.71796551       50.02381837
  |   60: Species W            12.58275861        0.90375049       51.60281540
  |   61: Species S            14.16015702        1.81272600       53.16962698
  |   62: Species S            14.15320859        1.81674055       50.03652824
  |   63: Species W            11.00669739        3.63325642       51.60282003
  |   64: Species S            12.58266629        4.54474771       53.16960977
  |   65: Species S            12.58266715        4.53667128       50.03651619
  |   66: Species W             9.41741107        6.35450447       51.57938461
  |   67: Species S            10.98947055        7.26660772       53.15284297
  |   68: Species S            11.00838367        7.25469855       50.02122151
  |   69: Species W             7.83773527        9.06442966       51.53961084
  |   70: Species S             9.40690182        9.97030121       53.12967559
  |   71: Species S             9.43831016        9.98844748       50.00223026
  |   72: Species W             6.28040075       11.78725281       51.57939192
  |   73: Species S             7.85640514       12.69251144       53.15286137
  |   74: Species S             7.85557187       12.71487986       50.02125913

  Lattice parameters for 3D lattice (in Angstroms) :    15.728477   15.727883  103.135706
  Angle(s) between unit vectors (in degrees)       :    90.000000   90.000000  120.002841


  Quantities derived from the lattice vectors:
  | Reciprocal lattice vector 1:  0.399478  0.230665  0.000000
  | Reciprocal lattice vector 2:  0.000000  0.461308  0.000000
  | Reciprocal lattice vector 3:  0.000000  0.000000  0.060922
  | Unit cell volume                               :   0.220945E+05  A^3

  Fractional coordinates:
                         L1                L2                L3
       atom_frac         0.03335606        0.06656953        0.50028062  W
       atom_frac         0.16804335        0.13445767        0.51536862  S
       atom_frac         0.16640401        0.13369112        0.48500468  S
       atom_frac         0.03357523        0.26675182        0.50033903  W
       atom_frac         0.16818409        0.33405574        0.51542278  S
       atom_frac         0.16617885        0.33304981        0.48502944  S
       atom_frac         0.03335822        0.46671638        0.50028019  W
       atom_frac         0.16804547        0.53351115        0.51536799  S
       atom_frac         0.16640574        0.53263694        0.48500393  S
       atom_frac         0.03272001        0.66633122        0.50010783  W
       atom_frac         0.16653817        0.73307420        0.51528247  S
       atom_frac         0.16650747        0.73301252        0.48494276  S
       atom_frac         0.03271883        0.86631662        0.50010798  W
       atom_frac         0.16653606        0.93338518        0.51528279  S
       atom_frac         0.16650639        0.93341954        0.48494303  S
       atom_frac         0.23360966        0.06720649        0.50010847  W
       atom_frac         0.36790856        0.13581547        0.51514411  S
       atom_frac         0.36657731        0.13315333        0.48482051  S
       atom_frac         0.23451015        0.26789461        0.50011241  W
       atom_frac         0.37279492        0.33927325        0.51488840  S
       atom_frac         0.36635612        0.33455884        0.48451858  S
       atom_frac         0.23451190        0.46654451        0.50011184  W
       atom_frac         0.37279483        0.53344412        0.51488773  S
       atom_frac         0.36635935        0.53171613        0.48451803  S
       atom_frac         0.23361213        0.66633152        0.50010785  W
       atom_frac         0.36791132        0.73201485        0.51514336  S
       atom_frac         0.36658069        0.73334739        0.48481988  S
       atom_frac         0.23330988        0.86661914        0.50011098  W
       atom_frac         0.36685129        0.93338548        0.51528278  S
       atom_frac         0.36691559        0.93341945        0.48494309  S
       atom_frac         0.43359768        0.06720706        0.50010845  W
       atom_frac         0.56641605        0.13445718        0.51536861  S
       atom_frac         0.56728891        0.13369104        0.48500459  S
       atom_frac         0.43442031        0.26883925        0.49972699  W
       atom_frac         0.56647957        0.33927211        0.51488851  S
       atom_frac         0.56820415        0.33455954        0.48451860  S
       atom_frac         0.43904280        0.46948277        0.49924569  W
       atom_frac         0.56664008        0.53327806        0.48356095  S
       atom_frac         0.43442379        0.66550621        0.49972618  W
       atom_frac         0.56648244        0.72712820        0.51488770  S
       atom_frac         0.56820798        0.73356595        0.48451769  S
       atom_frac         0.43359961        0.86631721        0.50010809  W
       atom_frac         0.56641754        0.93187836        0.51536821  S
       atom_frac         0.56729061        0.93352039        0.48500421  S
       atom_frac         0.63321350        0.06656913        0.50028061  W
       atom_frac         0.76625511        0.13308933        0.51553073  S
       atom_frac         0.76684464        0.13338429        0.48515236  S
       atom_frac         0.63338365        0.26789371        0.50011241  W
       atom_frac         0.76587248        0.33405525        0.51542280  S
       atom_frac         0.76687179        0.33304954        0.48502951  S
       atom_frac         0.63043907        0.46948178        0.49924586  W
       atom_frac         0.76065037        0.53344408        0.51488780  S
       atom_frac         0.76535721        0.53171555        0.48451815  S
       atom_frac         0.63044170        0.66088361        0.49924511  W
       atom_frac         0.76064683        0.72712644        0.51488767  S
       atom_frac         0.76536048        0.73356632        0.48451771  S
       atom_frac         0.63338590        0.86541453        0.50011172  W
       atom_frac         0.76587131        0.93174112        0.51542250  S
       atom_frac         0.76687479        0.93374690        0.48502910  S
       atom_frac         0.83317661        0.06635293        0.50033899  W
       atom_frac         0.96683581        0.13308947        0.51553074  S
       atom_frac         0.96654142        0.13338422        0.48515233  S
       atom_frac         0.83317662        0.26675193        0.50033904  W
       atom_frac         0.96683730        0.33367319        0.51553057  S
       atom_frac         0.96654085        0.33308022        0.48515221  S
       atom_frac         0.83203263        0.46654465        0.50011181  W
       atom_frac         0.96546722        0.53351084        0.51536800  S
       atom_frac         0.96623249        0.53263647        0.48500392  S
       atom_frac         0.83108400        0.66550606        0.49972616  W
       atom_frac         0.96410588        0.73201471        0.51514337  S
       atom_frac         0.96676897        0.73334700        0.48481978  S
       atom_frac         0.83202930        0.86541442        0.50011188  W
       atom_frac         0.96546342        0.93187807        0.51536818  S
       atom_frac         0.96623162        0.93352035        0.48500428  S

  Initial moments and charges:
  |  Atom   Moment         Charge        Species
  |     1   0.100000E+01   0.000000E+00   W
  |     2   0.100000E+01   0.000000E+00   S
  |     3   0.100000E+01   0.000000E+00   S
  |     4   0.100000E+01   0.000000E+00   W
  |     5   0.100000E+01   0.000000E+00   S
  |     6   0.100000E+01   0.000000E+00   S
  |     7   0.100000E+01   0.000000E+00   W
  |     8   0.100000E+01   0.000000E+00   S
  |     9   0.100000E+01   0.000000E+00   S
  |    10   0.100000E+01   0.000000E+00   W
  |    11   0.100000E+01   0.000000E+00   S
  |    12   0.100000E+01   0.000000E+00   S
  |    13   0.100000E+01   0.000000E+00   W
  |    14   0.100000E+01   0.000000E+00   S
  |    15   0.100000E+01   0.000000E+00   S
  |    16   0.100000E+01   0.000000E+00   W
  |    17   0.100000E+01   0.000000E+00   S
  |    18   0.100000E+01   0.000000E+00   S
  |    19   0.100000E+01   0.000000E+00   W
  |    20   0.100000E+01   0.000000E+00   S
  |    21   0.100000E+01   0.000000E+00   S
  |    22   0.100000E+01   0.000000E+00   W
  |    23   0.100000E+01   0.000000E+00   S
  |    24   0.100000E+01   0.000000E+00   S
  |    25   0.100000E+01   0.000000E+00   W
  |    26   0.100000E+01   0.000000E+00   S
  |    27   0.100000E+01   0.000000E+00   S
  |    28   0.100000E+01   0.000000E+00   W
  |    29   0.100000E+01   0.000000E+00   S
  |    30   0.100000E+01   0.000000E+00   S
  |    31   0.100000E+01   0.000000E+00   W
  |    32   0.100000E+01   0.000000E+00   S
  |    33   0.100000E+01   0.000000E+00   S
  |    34   0.100000E+01   0.000000E+00   W
  |    35   0.100000E+01   0.000000E+00   S
  |    36   0.100000E+01   0.000000E+00   S
  |    37   0.100000E+01   0.000000E+00   W
  |    38   0.100000E+01   0.000000E+00   S
  |    39   0.100000E+01   0.000000E+00   W
  |    40   0.100000E+01   0.000000E+00   S
  |    41   0.100000E+01   0.000000E+00   S
  |    42   0.100000E+01   0.000000E+00   W
  |    43   0.100000E+01   0.000000E+00   S
  |    44   0.100000E+01   0.000000E+00   S
  |    45   0.100000E+01   0.000000E+00   W
  |    46   0.100000E+01   0.000000E+00   S
  |    47   0.100000E+01   0.000000E+00   S
  |    48   0.100000E+01   0.000000E+00   W
  |    49   0.100000E+01   0.000000E+00   S
  |    50   0.100000E+01   0.000000E+00   S
  |    51   0.100000E+01   0.000000E+00   W
  |    52   0.100000E+01   0.000000E+00   S
  |    53   0.100000E+01   0.000000E+00   S
  |    54   0.100000E+01   0.000000E+00   W
  |    55   0.100000E+01   0.000000E+00   S
  |    56   0.100000E+01   0.000000E+00   S
  |    57   0.100000E+01   0.000000E+00   W
  |    58   0.100000E+01   0.000000E+00   S
  |    59   0.100000E+01   0.000000E+00   S
  |    60   0.100000E+01   0.000000E+00   W
  |    61   0.100000E+01   0.000000E+00   S
  |    62   0.100000E+01   0.000000E+00   S
  |    63   0.100000E+01   0.000000E+00   W
  |    64   0.100000E+01   0.000000E+00   S
  |    65   0.100000E+01   0.000000E+00   S
  |    66   0.100000E+01   0.000000E+00   W
  |    67   0.100000E+01   0.000000E+00   S
  |    68   0.100000E+01   0.000000E+00   S
  |    69   0.100000E+01   0.000000E+00   W
  |    70   0.100000E+01   0.000000E+00   S
  |    71   0.100000E+01   0.000000E+00   S
  |    72   0.100000E+01   0.000000E+00   W
  |    73   0.100000E+01   0.000000E+00   S
  |    74   0.100000E+01   0.000000E+00   S

 
  Finished reading input file 'control.in'.
 

------------------------------------------------------------
          Reading geometry description geometry.in.
------------------------------------------------------------
 
  Consistency checks for stacksize environment parameter are next.
 
  | Maximum stacksize for task 0: unlimited
  | Maximum stacksize for task 1: unlimited
  | Maximum stacksize for task 2: unlimited
  | Maximum stacksize for task 3: unlimited
  | Maximum stacksize for task 4: unlimited
  | Maximum stacksize for task 5: unlimited
  | Maximum stacksize for task 6: unlimited
  | Maximum stacksize for task 7: unlimited
  | Maximum stacksize for task 8: unlimited
  | Maximum stacksize for task 9: unlimited
  | Maximum stacksize for task 10: unlimited
  | Maximum stacksize for task 11: unlimited
  | Maximum stacksize for task 12: unlimited
  | Maximum stacksize for task 13: unlimited
  | Maximum stacksize for task 14: unlimited
  | Maximum stacksize for task 15: unlimited
  | Maximum stacksize for task 16: unlimited
  | Maximum stacksize for task 17: unlimited
  | Maximum stacksize for task 18: unlimited
  | Maximum stacksize for task 19: unlimited
  | Maximum stacksize for task 20: unlimited
  | Maximum stacksize for task 21: unlimited
  | Maximum stacksize for task 22: unlimited
  | Maximum stacksize for task 23: unlimited
  | Maximum stacksize for task 24: unlimited
  | Maximum stacksize for task 25: unlimited
  | Maximum stacksize for task 26: unlimited
  | Maximum stacksize for task 27: unlimited
  | Maximum stacksize for task 28: unlimited
  | Maximum stacksize for task 29: unlimited
  | Maximum stacksize for task 30: unlimited
  | Maximum stacksize for task 31: unlimited
  | Maximum stacksize for task 32: unlimited
  | Maximum stacksize for task 33: unlimited
  | Maximum stacksize for task 34: unlimited
  | Maximum stacksize for task 35: unlimited
  | Maximum stacksize for task 36: unlimited
  | Maximum stacksize for task 37: unlimited
  | Maximum stacksize for task 38: unlimited
  | Maximum stacksize for task 39: unlimited
  | Maximum stacksize for task 40: unlimited
  | Maximum stacksize for task 41: unlimited
  | Maximum stacksize for task 42: unlimited
  | Maximum stacksize for task 43: unlimited
  | Maximum stacksize for task 44: unlimited
  | Maximum stacksize for task 45: unlimited
  | Maximum stacksize for task 46: unlimited
  | Maximum stacksize for task 47: unlimited
  | Maximum stacksize for task 48: unlimited
  | Maximum stacksize for task 49: unlimited
  | Maximum stacksize for task 50: unlimited
  | Maximum stacksize for task 51: unlimited
  | Maximum stacksize for task 52: unlimited
  | Maximum stacksize for task 53: unlimited
  | Maximum stacksize for task 54: unlimited
  | Maximum stacksize for task 55: unlimited
  | Maximum stacksize for task 56: unlimited
  | Maximum stacksize for task 57: unlimited
  | Maximum stacksize for task 58: unlimited
  | Maximum stacksize for task 59: unlimited
  | Maximum stacksize for task 60: unlimited
  | Maximum stacksize for task 61: unlimited
  | Maximum stacksize for task 62: unlimited
  | Maximum stacksize for task 63: unlimited
  | Maximum stacksize for task 64: unlimited
  | Maximum stacksize for task 65: unlimited
  | Maximum stacksize for task 66: unlimited
  | Maximum stacksize for task 67: unlimited
  | Maximum stacksize for task 68: unlimited
  | Maximum stacksize for task 69: unlimited
  | Maximum stacksize for task 70: unlimited
  | Maximum stacksize for task 71: unlimited
  | Maximum stacksize for task 72: unlimited
  | Maximum stacksize for task 73: unlimited
  | Maximum stacksize for task 74: unlimited
  | Maximum stacksize for task 75: unlimited
  | Maximum stacksize for task 76: unlimited
  | Maximum stacksize for task 77: unlimited
  | Maximum stacksize for task 78: unlimited
  | Maximum stacksize for task 79: unlimited
  | Maximum stacksize for task 80: unlimited
  | Maximum stacksize for task 81: unlimited
  | Maximum stacksize for task 82: unlimited
  | Maximum stacksize for task 83: unlimited
  | Maximum stacksize for task 84: unlimited
  | Maximum stacksize for task 85: unlimited
  | Maximum stacksize for task 86: unlimited
  | Maximum stacksize for task 87: unlimited
  | Maximum stacksize for task 88: unlimited
  | Maximum stacksize for task 89: unlimited
  | Maximum stacksize for task 90: unlimited
  | Maximum stacksize for task 91: unlimited
  | Maximum stacksize for task 92: unlimited
  | Maximum stacksize for task 93: unlimited
  | Maximum stacksize for task 94: unlimited
  | Maximum stacksize for task 95: unlimited
  | Maximum stacksize for task 96: unlimited
  | Maximum stacksize for task 97: unlimited
  | Maximum stacksize for task 98: unlimited
  | Maximum stacksize for task 99: unlimited
  | Maximum stacksize for task 100: unlimited
  | Maximum stacksize for task 101: unlimited
  | Maximum stacksize for task 102: unlimited
  | Maximum stacksize for task 103: unlimited
  | Maximum stacksize for task 104: unlimited
  | Maximum stacksize for task 105: unlimited
  | Maximum stacksize for task 106: unlimited
  | Maximum stacksize for task 107: unlimited
  | Maximum stacksize for task 108: unlimited
  | Maximum stacksize for task 109: unlimited
  | Maximum stacksize for task 110: unlimited
  | Maximum stacksize for task 111: unlimited
  | Maximum stacksize for task 112: unlimited
  | Maximum stacksize for task 113: unlimited
  | Maximum stacksize for task 114: unlimited
  | Maximum stacksize for task 115: unlimited
  | Maximum stacksize for task 116: unlimited
  | Maximum stacksize for task 117: unlimited
  | Maximum stacksize for task 118: unlimited
  | Maximum stacksize for task 119: unlimited
  | Maximum stacksize for task 120: unlimited
  | Maximum stacksize for task 121: unlimited
  | Maximum stacksize for task 122: unlimited
  | Maximum stacksize for task 123: unlimited
  | Maximum stacksize for task 124: unlimited
  | Maximum stacksize for task 125: unlimited
  | Maximum stacksize for task 126: unlimited
  | Maximum stacksize for task 127: unlimited
  | Maximum stacksize for task 128: unlimited
  | Maximum stacksize for task 129: unlimited
  | Maximum stacksize for task 130: unlimited
  | Maximum stacksize for task 131: unlimited
  | Maximum stacksize for task 132: unlimited
  | Maximum stacksize for task 133: unlimited
  | Maximum stacksize for task 134: unlimited
  | Maximum stacksize for task 135: unlimited
  | Maximum stacksize for task 136: unlimited
  | Maximum stacksize for task 137: unlimited
  | Maximum stacksize for task 138: unlimited
  | Maximum stacksize for task 139: unlimited
  | Maximum stacksize for task 140: unlimited
  | Maximum stacksize for task 141: unlimited
  | Maximum stacksize for task 142: unlimited
  | Maximum stacksize for task 143: unlimited
  | Maximum stacksize for task 144: unlimited
  | Maximum stacksize for task 145: unlimited
  | Maximum stacksize for task 146: unlimited
  | Maximum stacksize for task 147: unlimited
  | Maximum stacksize for task 148: unlimited
  | Maximum stacksize for task 149: unlimited
  | Maximum stacksize for task 150: unlimited
  | Maximum stacksize for task 151: unlimited
  | Maximum stacksize for task 152: unlimited
  | Maximum stacksize for task 153: unlimited
  | Maximum stacksize for task 154: unlimited
  | Maximum stacksize for task 155: unlimited
  | Maximum stacksize for task 156: unlimited
  | Maximum stacksize for task 157: unlimited
  | Maximum stacksize for task 158: unlimited
  | Maximum stacksize for task 159: unlimited
  | Maximum stacksize for task 160: unlimited
  | Maximum stacksize for task 161: unlimited
  | Maximum stacksize for task 162: unlimited
  | Maximum stacksize for task 163: unlimited
  | Maximum stacksize for task 164: unlimited
  | Maximum stacksize for task 165: unlimited
  | Maximum stacksize for task 166: unlimited
  | Maximum stacksize for task 167: unlimited
  | Maximum stacksize for task 168: unlimited
  | Maximum stacksize for task 169: unlimited
  | Maximum stacksize for task 170: unlimited
  | Maximum stacksize for task 171: unlimited
  | Maximum stacksize for task 172: unlimited
  | Maximum stacksize for task 173: unlimited
  | Maximum stacksize for task 174: unlimited
  | Maximum stacksize for task 175: unlimited
  | Maximum stacksize for task 176: unlimited
  | Maximum stacksize for task 177: unlimited
  | Maximum stacksize for task 178: unlimited
  | Maximum stacksize for task 179: unlimited
  | Maximum stacksize for task 180: unlimited
  | Maximum stacksize for task 181: unlimited
  | Maximum stacksize for task 182: unlimited
  | Maximum stacksize for task 183: unlimited
  | Maximum stacksize for task 184: unlimited
  | Maximum stacksize for task 185: unlimited
  | Maximum stacksize for task 186: unlimited
  | Maximum stacksize for task 187: unlimited
  | Maximum stacksize for task 188: unlimited
  | Maximum stacksize for task 189: unlimited
  | Maximum stacksize for task 190: unlimited
  | Maximum stacksize for task 191: unlimited
  | Maximum stacksize for task 192: unlimited
  | Maximum stacksize for task 193: unlimited
  | Maximum stacksize for task 194: unlimited
  | Maximum stacksize for task 195: unlimited
  | Maximum stacksize for task 196: unlimited
  | Maximum stacksize for task 197: unlimited
  | Maximum stacksize for task 198: unlimited
  | Maximum stacksize for task 199: unlimited
  | Maximum stacksize for task 200: unlimited
  | Maximum stacksize for task 201: unlimited
  | Maximum stacksize for task 202: unlimited
  | Maximum stacksize for task 203: unlimited
  | Maximum stacksize for task 204: unlimited
  | Maximum stacksize for task 205: unlimited
  | Maximum stacksize for task 206: unlimited
  | Maximum stacksize for task 207: unlimited
  | Maximum stacksize for task 208: unlimited
  | Maximum stacksize for task 209: unlimited
  | Maximum stacksize for task 210: unlimited
  | Maximum stacksize for task 211: unlimited
  | Maximum stacksize for task 212: unlimited
  | Maximum stacksize for task 213: unlimited
  | Maximum stacksize for task 214: unlimited
  | Maximum stacksize for task 215: unlimited
  | Current stacksize for task 0: unlimited
  | Current stacksize for task 1: unlimited
  | Current stacksize for task 2: unlimited
  | Current stacksize for task 3: unlimited
  | Current stacksize for task 4: unlimited
  | Current stacksize for task 5: unlimited
  | Current stacksize for task 6: unlimited
  | Current stacksize for task 7: unlimited
  | Current stacksize for task 8: unlimited
  | Current stacksize for task 9: unlimited
  | Current stacksize for task 10: unlimited
  | Current stacksize for task 11: unlimited
  | Current stacksize for task 12: unlimited
  | Current stacksize for task 13: unlimited
  | Current stacksize for task 14: unlimited
  | Current stacksize for task 15: unlimited
  | Current stacksize for task 16: unlimited
  | Current stacksize for task 17: unlimited
  | Current stacksize for task 18: unlimited
  | Current stacksize for task 19: unlimited
  | Current stacksize for task 20: unlimited
  | Current stacksize for task 21: unlimited
  | Current stacksize for task 22: unlimited
  | Current stacksize for task 23: unlimited
  | Current stacksize for task 24: unlimited
  | Current stacksize for task 25: unlimited
  | Current stacksize for task 26: unlimited
  | Current stacksize for task 27: unlimited
  | Current stacksize for task 28: unlimited
  | Current stacksize for task 29: unlimited
  | Current stacksize for task 30: unlimited
  | Current stacksize for task 31: unlimited
  | Current stacksize for task 32: unlimited
  | Current stacksize for task 33: unlimited
  | Current stacksize for task 34: unlimited
  | Current stacksize for task 35: unlimited
  | Current stacksize for task 36: unlimited
  | Current stacksize for task 37: unlimited
  | Current stacksize for task 38: unlimited
  | Current stacksize for task 39: unlimited
  | Current stacksize for task 40: unlimited
  | Current stacksize for task 41: unlimited
  | Current stacksize for task 42: unlimited
  | Current stacksize for task 43: unlimited
  | Current stacksize for task 44: unlimited
  | Current stacksize for task 45: unlimited
  | Current stacksize for task 46: unlimited
  | Current stacksize for task 47: unlimited
  | Current stacksize for task 48: unlimited
  | Current stacksize for task 49: unlimited
  | Current stacksize for task 50: unlimited
  | Current stacksize for task 51: unlimited
  | Current stacksize for task 52: unlimited
  | Current stacksize for task 53: unlimited
  | Current stacksize for task 54: unlimited
  | Current stacksize for task 55: unlimited
  | Current stacksize for task 56: unlimited
  | Current stacksize for task 57: unlimited
  | Current stacksize for task 58: unlimited
  | Current stacksize for task 59: unlimited
  | Current stacksize for task 60: unlimited
  | Current stacksize for task 61: unlimited
  | Current stacksize for task 62: unlimited
  | Current stacksize for task 63: unlimited
  | Current stacksize for task 64: unlimited
  | Current stacksize for task 65: unlimited
  | Current stacksize for task 66: unlimited
  | Current stacksize for task 67: unlimited
  | Current stacksize for task 68: unlimited
  | Current stacksize for task 69: unlimited
  | Current stacksize for task 70: unlimited
  | Current stacksize for task 71: unlimited
  | Current stacksize for task 72: unlimited
  | Current stacksize for task 73: unlimited
  | Current stacksize for task 74: unlimited
  | Current stacksize for task 75: unlimited
  | Current stacksize for task 76: unlimited
  | Current stacksize for task 77: unlimited
  | Current stacksize for task 78: unlimited
  | Current stacksize for task 79: unlimited
  | Current stacksize for task 80: unlimited
  | Current stacksize for task 81: unlimited
  | Current stacksize for task 82: unlimited
  | Current stacksize for task 83: unlimited
  | Current stacksize for task 84: unlimited
  | Current stacksize for task 85: unlimited
  | Current stacksize for task 86: unlimited
  | Current stacksize for task 87: unlimited
  | Current stacksize for task 88: unlimited
  | Current stacksize for task 89: unlimited
  | Current stacksize for task 90: unlimited
  | Current stacksize for task 91: unlimited
  | Current stacksize for task 92: unlimited
  | Current stacksize for task 93: unlimited
  | Current stacksize for task 94: unlimited
  | Current stacksize for task 95: unlimited
  | Current stacksize for task 96: unlimited
  | Current stacksize for task 97: unlimited
  | Current stacksize for task 98: unlimited
  | Current stacksize for task 99: unlimited
  | Current stacksize for task 100: unlimited
  | Current stacksize for task 101: unlimited
  | Current stacksize for task 102: unlimited
  | Current stacksize for task 103: unlimited
  | Current stacksize for task 104: unlimited
  | Current stacksize for task 105: unlimited
  | Current stacksize for task 106: unlimited
  | Current stacksize for task 107: unlimited
  | Current stacksize for task 108: unlimited
  | Current stacksize for task 109: unlimited
  | Current stacksize for task 110: unlimited
  | Current stacksize for task 111: unlimited
  | Current stacksize for task 112: unlimited
  | Current stacksize for task 113: unlimited
  | Current stacksize for task 114: unlimited
  | Current stacksize for task 115: unlimited
  | Current stacksize for task 116: unlimited
  | Current stacksize for task 117: unlimited
  | Current stacksize for task 118: unlimited
  | Current stacksize for task 119: unlimited
  | Current stacksize for task 120: unlimited
  | Current stacksize for task 121: unlimited
  | Current stacksize for task 122: unlimited
  | Current stacksize for task 123: unlimited
  | Current stacksize for task 124: unlimited
  | Current stacksize for task 125: unlimited
  | Current stacksize for task 126: unlimited
  | Current stacksize for task 127: unlimited
  | Current stacksize for task 128: unlimited
  | Current stacksize for task 129: unlimited
  | Current stacksize for task 130: unlimited
  | Current stacksize for task 131: unlimited
  | Current stacksize for task 132: unlimited
  | Current stacksize for task 133: unlimited
  | Current stacksize for task 134: unlimited
  | Current stacksize for task 135: unlimited
  | Current stacksize for task 136: unlimited
  | Current stacksize for task 137: unlimited
  | Current stacksize for task 138: unlimited
  | Current stacksize for task 139: unlimited
  | Current stacksize for task 140: unlimited
  | Current stacksize for task 141: unlimited
  | Current stacksize for task 142: unlimited
  | Current stacksize for task 143: unlimited
  | Current stacksize for task 144: unlimited
  | Current stacksize for task 145: unlimited
  | Current stacksize for task 146: unlimited
  | Current stacksize for task 147: unlimited
  | Current stacksize for task 148: unlimited
  | Current stacksize for task 149: unlimited
  | Current stacksize for task 150: unlimited
  | Current stacksize for task 151: unlimited
  | Current stacksize for task 152: unlimited
  | Current stacksize for task 153: unlimited
  | Current stacksize for task 154: unlimited
  | Current stacksize for task 155: unlimited
  | Current stacksize for task 156: unlimited
  | Current stacksize for task 157: unlimited
  | Current stacksize for task 158: unlimited
  | Current stacksize for task 159: unlimited
  | Current stacksize for task 160: unlimited
  | Current stacksize for task 161: unlimited
  | Current stacksize for task 162: unlimited
  | Current stacksize for task 163: unlimited
  | Current stacksize for task 164: unlimited
  | Current stacksize for task 165: unlimited
  | Current stacksize for task 166: unlimited
  | Current stacksize for task 167: unlimited
  | Current stacksize for task 168: unlimited
  | Current stacksize for task 169: unlimited
  | Current stacksize for task 170: unlimited
  | Current stacksize for task 171: unlimited
  | Current stacksize for task 172: unlimited
  | Current stacksize for task 173: unlimited
  | Current stacksize for task 174: unlimited
  | Current stacksize for task 175: unlimited
  | Current stacksize for task 176: unlimited
  | Current stacksize for task 177: unlimited
  | Current stacksize for task 178: unlimited
  | Current stacksize for task 179: unlimited
  | Current stacksize for task 180: unlimited
  | Current stacksize for task 181: unlimited
  | Current stacksize for task 182: unlimited
  | Current stacksize for task 183: unlimited
  | Current stacksize for task 184: unlimited
  | Current stacksize for task 185: unlimited
  | Current stacksize for task 186: unlimited
  | Current stacksize for task 187: unlimited
  | Current stacksize for task 188: unlimited
  | Current stacksize for task 189: unlimited
  | Current stacksize for task 190: unlimited
  | Current stacksize for task 191: unlimited
  | Current stacksize for task 192: unlimited
  | Current stacksize for task 193: unlimited
  | Current stacksize for task 194: unlimited
  | Current stacksize for task 195: unlimited
  | Current stacksize for task 196: unlimited
  | Current stacksize for task 197: unlimited
  | Current stacksize for task 198: unlimited
  | Current stacksize for task 199: unlimited
  | Current stacksize for task 200: unlimited
  | Current stacksize for task 201: unlimited
  | Current stacksize for task 202: unlimited
  | Current stacksize for task 203: unlimited
  | Current stacksize for task 204: unlimited
  | Current stacksize for task 205: unlimited
  | Current stacksize for task 206: unlimited
  | Current stacksize for task 207: unlimited
  | Current stacksize for task 208: unlimited
  | Current stacksize for task 209: unlimited
  | Current stacksize for task 210: unlimited
  | Current stacksize for task 211: unlimited
  | Current stacksize for task 212: unlimited
  | Current stacksize for task 213: unlimited
  | Current stacksize for task 214: unlimited
  | Current stacksize for task 215: unlimited
 
  Consistency checks for the contents of control.in are next.
 
  HSE06 screening parameters: omega_HF  =      0.11000000 bohr^-1, and
                              omega_PBE =      0.11000000 bohr^-1.
  MPI_IN_PLACE appears to work with this MPI implementation.
  | Keeping use_mpi_in_place .true. (see manual).
  Explicit treatment of the Coulomb operator is needed, but the RI method is not specified.
  Coulomb operator: Defaulting to 'LVL fast' resolution of identity - RI_type = LVL_fast
  Species Se: Using default value for prodbas_acc =   1.000000E-04.
  Species Se: Using default value max_l_prodbas =    20.
  Species S: Using default value for prodbas_acc =   1.000000E-04.
  Species S: Using default value max_l_prodbas =    20.
  Species Mo: Using default value for prodbas_acc =   1.000000E-04.
  Species Mo: Using default value max_l_prodbas =    20.
  Species W: Using default value for prodbas_acc =   1.000000E-04.
  Species W: Using default value max_l_prodbas =    20.
  Target number of points in a grid batch is not set. Defaulting to  100
  Method for grid partitioning is not set. Defaulting to parallel hash+maxmin partitioning.
  Batch size limit is not set. Defaulting to    200
  By default, will store active basis functions for each batch.
  If in need of memory, prune_basis_once .false. can be used to disable this option.
  communication_type for Hartree potential was not specified.
  Defaulting to calc_hartree .
  Defaulting to Pulay charge density mixer.
  Pulay mixer: Number of relevant iterations not set.
  Defaulting to    8 iterations.
  Pulay mixer: Number of initial linear mixing iterations not set.
  Defaulting to    0 iterations.
  Work space size for distributed Hartree potential not set.
  Defaulting to   0.200000E+03 MB.
  Mixing parameter for charge density mixing has not been set.
  Using default: charge_mix_param =     0.0500.
  The mixing parameter will be adjusted in iteration number     2 of the first full s.c.f. cycle only.
  Mixing parameter for spin density mixing has not been set.
  Using charge_mix_param as default:     0.0500.
  Algorithm-dependent basis array size parameters:
  | n_max_pulay                         :        8
  Maximum number of self-consistency iterations not provided.
  Presetting  1000 iterations.
  Presetting      1001 iterations before the initial mixing cycle
  is restarted anyway using the sc_init_iter criterion / keyword.
  Presetting a factor      1.000 between actual scf density residual
  and density convergence criterion sc_accuracy_rho below which sc_init_iter
  takes no effect.
 * No s.c.f. convergence criteria (sc_accuracy_*) were provided in control.in.
 * The run will proceed with a reasonable default guess, but please check whether.
[...]
   3311       0.00000                      10.588052          10.665411             0.011594
   3312       0.00000                      10.588056          10.665416             0.000004
   3313       0.00000                      10.634441          10.708647             0.043232
   3314       0.00000                      10.634445          10.708649             0.000002
   3315       0.00000                      10.685967          10.719646             0.010997
   3316       0.00000                      10.685973          10.719647             0.000001
   3317       0.00000                      10.686112          10.726413             0.006766
   3318       0.00000                      10.686118          10.726414             0.000001
   3319       0.00000                      10.707301          10.736659             0.010246
   3320       0.00000                      10.707304          10.736663             0.000003
   3321       0.00000                      10.707597          10.757547             0.020884
   3322       0.00000                      10.707601          10.757552             0.000005
   3323       0.00000                      10.723670          10.768959             0.011407
   3324       0.00000                      10.723677          10.768961             0.000002
   3325       0.00000                      10.727468          10.781921             0.012960
   3326       0.00000                      10.727473          10.781922             0.000001
   3327       0.00000                      10.734132          10.795450             0.013528
   3328       0.00000                      10.734137          10.795452             0.000002
   3329       0.00000                      10.734208          10.806093             0.010641
   3330       0.00000                      10.734213          10.806096             0.000003
   3331       0.00000                      10.745721          10.806672             0.000575
   3332       0.00000                      10.745728          10.806673             0.000001
   3333       0.00000                      10.774571          10.821960             0.015287
   3334       0.00000                      10.774577          10.821960             0.000000
   3335       0.00000                      10.777717          10.837280             0.015320
   3336       0.00000                      10.777722          10.837281             0.000001
   3337       0.00000                      10.777921          10.858421             0.021140
   3338       0.00000                      10.777926          10.858422             0.000001
   3339       0.00000                      10.792681          10.865571             0.007149
   3340       0.00000                      10.792687          10.865574             0.000003
   3341       0.00000                      10.792838          10.886983             0.021409
   3342       0.00000                      10.792843          10.886984             0.000000
   3343       0.00000                      10.837257          10.936882             0.049899
   3344       0.00000                      10.837262          10.936884             0.000002
   3345       0.00000                      11.040805          11.117258             0.180374
   3346       0.00000                      11.040808          11.117262             0.000003
   3347       0.00000                      11.060972          11.171471             0.054209
   3348       0.00000                      11.060977          11.171475             0.000005
   3349       0.00000                      11.061243          11.254579             0.083104
   3350       0.00000                      11.061248          11.254581             0.000002
   3351       0.00000                      11.135954          11.317929             0.063349
   3352       0.00000                      11.135957          11.317932             0.000003
   3353       0.00000                      11.168975          11.331770             0.013838
   3354       0.00000                      11.168979          11.331773             0.000003
   3355       0.00000                      11.169304          11.341364             0.009591
   3356       0.00000                      11.169307          11.341366             0.000002
   3357       0.00000                      11.234500          11.412153             0.070786
   3358       0.00000                      11.234504          11.412155             0.000002
   3359       0.00000                      11.234838          11.413591             0.001437
   3360       0.00000                      11.234842          11.413594             0.000003
   3361       0.00000                      11.457436          11.542223             0.128629
   3362       0.00000                      11.457443          11.542229             0.000006
   3363       0.00000                      11.736311          11.765422             0.223193
   3364       0.00000                      11.736318          11.765428             0.000006
   3365       0.00000                      11.736564          11.790861             0.025433
   3366       0.00000                      11.736571          11.790867             0.000006
   3367       0.00000                      11.870315          11.897358             0.106491
   3368       0.00000                      11.870322          11.897364             0.000006
   3369       0.00000                      11.870374          11.902259             0.004895
   3370       0.00000                      11.870381          11.902266             0.000007
   3371       0.00000                      11.906031          11.936888             0.034622
   3372       0.00000                      11.906038          11.936895             0.000008
   3373       0.00000                      11.962615          11.993811             0.056915
   3374       0.00000                      11.962623          11.993818             0.000007
   3375       0.00000                      12.005954          12.036083             0.042265
   3376       0.00000                      12.005960          12.036089             0.000006
   3377       0.00000                      12.006354          12.075843             0.039754
   3378       0.00000                      12.006360          12.075848             0.000005

  What follows are estimated values for band gap, HOMO, LUMO, etc.
  | They are estimated on a discrete k-point grid and not necessarily exact.
  | For converged numbers, create a DOS and/or band structure plot on a denser k-grid.

  Highest occupied state (VBM) at     -6.10931565 eV (relative to internal zero)
  | Occupation number:      1.00000000
  | K-point:       6 at    0.250000    0.250000    0.000000 (in units of recip. lattice)

  Lowest unoccupied state (CBM) at    -4.37330965 eV (relative to internal zero)
  | Occupation number:      0.00000000
  | K-point:       6 at    0.250000    0.250000    0.000000 (in units of recip. lattice)

  ESTIMATED overall HOMO-LUMO gap:      1.73600600 eV between HOMO at k-point 6 and LUMO at k-point 6
  | This appears to be a direct band gap.
  The gap value is above 0.2 eV. Unless you are using a very sparse k-point grid,
  this system is most likely an insulator or a semiconductor.
  | Potential vacuum level, "upper" slab surface:    -0.03862787 eV
  | Potential vacuum level, "lower" slab surface:    -0.04937753 eV
  | Work function ("upper" slab surface)        :     5.14521032 eV
  | Work function ("lower" slab surface)        :     5.13446066 eV
  *** Warning: band gap may exist, check the suitability to define work function using chemical potential.
  | VBM (reference: upper vacuum level)         :     6.07068778 eV
  | CBM (reference: upper vacuum level)         :     4.33468178 eV

  Spin-orbit coupling                                     :  max(cpu_time)    wall_clock(cpu1)
  | Computing matrix elements for SOC operator            :          8.522               8.534
  | Constructing second-variational Hamiltonian           :          4.407               4.411
  | Diagonalizing second-variational Hamiltonian          :          4.364               4.369
  | Syncing data and calculating occupations              :          8.536               8.222
  | Writing out data, calculating band gaps, etc.         :          0.014               0.014
  | Total SOC time                                        :         25.552              25.553

  Partial memory accounting:
  | Current value for overall tracked memory usage:
  |   Minimum:      478.964 MB (on task 138)
  |   Maximum:     1853.786 MB (on task 191)
  |   Average:      976.707 MB
  | Peak value for overall tracked memory usage:
  |   Minimum:      604.970 MB (on task 138 after allocating temp_cmplx_eienvec)
  |   Maximum:     1981.432 MB (on task 187 after allocating temp_cmplx_eienvec)
  |   Average:     1104.184 MB
  | Largest tracked array allocation so far:
  |   Minimum:      131.973 MB (d_aux_mat on task  49)
  |   Maximum:      435.441 MB (ovlp3fn for atom on task 187)
  |   Average:      222.309 MB
  Note:  These values currently only include a subset of arrays which are explicitly tracked.
  The "true" memory usage will be greater.
 ------------------------------------------------------------
 Work function related results without post-SCF corrections:
 ------------------------------------------------------------
  | Chemical Potential                          :    -5.25348238 eV
  Writing energy levels:
  | Potential vacuum level, "upper" slab surface:    -0.03862787 eV
  | Potential vacuum level, "lower" slab surface:    -0.04937753 eV
  Spin-up energy levels:
  | Work function-spin ("upper" slab surface)   :     5.21485450 eV
  | Work function-spin ("lower" slab surface)   :     5.20410485 eV
  *** Warning: band gap may exist, check the suitability to define work function using chemical potential.
  | VBM-spin (reference: upper vacuum level)    :     6.27691908 eV
  | CBM-spin (reference: upper vacuum level)    :     4.25844636 eV
  Spin-down energy levels:
  | Work function-spin ("upper" slab surface)   :     5.21485450 eV
  | Work function-spin ("lower" slab surface)   :     5.20410485 eV
  *** Warning: band gap may exist, check the suitability to define work function using chemical potential.
  | VBM-spin (reference: upper vacuum level)    :     6.27692184 eV
  | CBM-spin (reference: upper vacuum level)    :     4.25844176 eV
 ------------------------------------------------------------
 Work function related results including post-SCF second variational SOC corrections:
 ------------------------------------------------------------
  | Chemical Potential                          :    -5.18383819 eV
  Writing energy levels:
  | Potential vacuum level, "upper" slab surface:    -0.03862787 eV
  | Potential vacuum level, "lower" slab surface:    -0.04937753 eV
  | Work function ("upper" slab surface)        :     5.14521032 eV
  | Work function ("lower" slab surface)        :     5.13446066 eV
  *** Warning: band gap may exist, check the suitability to define work function using chemical potential.
  | VBM (reference: upper vacuum level)         :     6.07068778 eV
  | CBM (reference: upper vacuum level)         :     4.33468178 eV
 ------------------------------------------------------------

------------------------------------------------------------------------------
  Final output of selected total energy values:

  The following output summarizes some interesting total energy values
  at the end of a run (AFTER all relaxation, molecular dynamics, etc.).

  | Total energy of the DFT / Hartree-Fock s.c.f. calculation      :      -11850457.366897533 eV
  | Final zero-broadening corrected energy (caution - metals only) :      -11850457.366897533 eV
  | Total energy after non-SC SOC correction (DO NOT USE)          :      -11850487.315710830 eV
  | For reference only, the value of 1 Hartree used in FHI-aims is :             27.211384500 eV
  | For reference only, the overall average (free atom contribution
  | + realspace contribution) of the electrostatic potential after
  | s.c.f. convergence is                                          :             -1.201604275 eV

  Before relying on these values, please be sure to understand exactly which
  total energy value is referred to by a given number. Different objects may
  all carry the same name 'total energy'. Definitions:

  Total energy of the DFT / Hartree-Fock s.c.f. calculation:
  | Note that this energy does not include ANY quantities calculated after the
  | s.c.f. cycle, in particular not ANY RPA, MP2, etc. many-body perturbation terms.

  Final zero-broadening corrected energy:
  | For metallic systems only, a broadening of the occupation numbers at the Fermi
  | level can be extrapolated back to zero broadening by an electron-gas inspired
  | formula. For all systems that are not real metals, this value can be
  | meaningless and should be avoided.

------------------------------------------------------------------------------
  Methods described in the following list of references were used in this FHI-aims run.
  If you publish the results, please make sure to cite these reference if they apply.
  FHI-aims is an academic code, and for our developers (often, Ph.D. students
  and postdocs), scientific credit in the community is essential.
  Thank you for helping us!

  For any use of FHI-aims, please cite:

    Volker Blum, Ralf Gehrke, Felix Hanke, Paula Havu, Ville Havu,
    Xinguo Ren, Karsten Reuter, and Matthias Scheffler
    'Ab initio molecular simulations with numeric atom-centered orbitals'
    Computer Physics Communications 180, 2175-2196 (2009)
    http://doi.org/10.1016/j.cpc.2009.06.022


  For Hartree-Fock, hybrid functionals, or many-body perturbation theory used in your run, please cite:

    Xinguo Ren, Patrick Rinke, Volker Blum, Juergen Wieferink, Alex Tkatchenko,
    Andrea Sanfilippo, Karsten Reuter, and Matthias Scheffler,
    'Resolution-of-identity approach to Hartree-Fock, hybrid density functionals,
    RPA, MP2, and GW with numeric atom-centered orbital basis functions'
    New Journal of Physics 14, 053020 (2012).
    http://doi.org/10.1088/1367-2630/14/5/053020


  The provided symmetry information was generated with SPGlib:

    Atsushi Togo, Yusuke Seto, Dimitar Pashov
    SPGlib 1.7.3 obtained from http://spglib.sourceforge.net
    Copyright (C) 2008 Atsushi Togo


  For second-variational spin-orbit coupling used in your run, please cite:

    William P. Huhn and Volker Blum,
    'One-hundred-three compound band-structure benchmark of post-self-consistent'
    'spin-orbit coupling treatments in density functional theory'
    Phys. Rev. Materials 1, 033803 (2017).


  The ELSI infrastructure was used in your run to solve the Kohn-Sham electronic structure.
  Please check out http://elsi-interchange.org to learn more.
  If scalability is important for your project, please acknowledge ELSI by citing:

    V. W-z. Yu, F. Corsetti, A. Garcia, W. P. Huhn, M. Jacquelin, W. Jia,
    B. Lange, L. Lin, J. Lu, W. Mi, A. Seifitokaldani, A. Vazquez-Mayagoitia,
    C. Yang, H. Yang, and V. Blum
    'ELSI: A unified software interface for Kohn-Sham electronic structure solvers'
    Computer Physics Communications 222, 267-285 (2018).
    http://doi.org/10.1016/j.cpc.2017.09.007


  For the real-space grid partitioning and parallelization used in this calculation, please cite:

    Ville Havu, Volker Blum, Paula Havu, and Matthias Scheffler,
    'Efficient O(N) integration for all-electron electronic structure calculation'
    'using numerically tabulated basis functions'
    Journal of Computational Physics 228, 8367-8379 (2009).
    http://doi.org/10.1016/j.jcp.2009.08.008


  The high-level electronic structure method used in your calculation
  employed our efficient localized resolution of identity for the Coulomb operator.
  Some calculations, especially large-scale hybrid density functional theory,
  are only possible thanks to this development. For this feature, please cite:

    Arvid Ihrig, Juergen Wieferink, Igor Ying Zhang, Matti Ropo, Xinguo Ren,
    Patrick Rinke, Matthias Scheffler, and Volker Blum,
    'Accurate localized resolution of identity approach for linear-scaling
    hybrid density functionals and for many-body perturbation theory'
    New Journal of Physics 117, 093020 (2015).
    http://doi.org/10.1088/1367-2630/17/9/093020

  Of course, there are many other important community references, e.g., those cited in the
  above references. Our list is limited to references that describe implementations in the
  FHI-aims code. The reason is purely practical (length of this list) - please credit others as well.

------------------------------------------------------------
          Leaving FHI-aims.
          Date     :  20220913, Time     :  171730.767

          Computational steps:
          | Number of self-consistency cycles          :           23
          | Number of SCF (re)initializations          :            1
          | Number of relaxation steps                 :            0

          Detailed time accounting                     :  max(cpu_time)    wall_clock(cpu1)
          | Total time                                  :     5623.665 s        5624.181 s
          | Preparation time                            :        1.465 s           1.487 s
          | Boundary condition initalization            :        0.967 s           0.968 s
          | Grid partitioning                           :        3.624 s           3.624 s
          | Preloading free-atom quantities on grid     :        1.653 s           1.659 s
          | Free-atom superposition energy              :        0.061 s           0.061 s
          | Total time for integrations                 :       46.368 s          46.368 s
          | Product basis setup: Total time             :      898.642 s         898.650 s
          | Total time evaluating exchange matrix       :     4303.506 s        4302.650 s
          | Total time for solution of K.-S. equations  :      152.249 s         152.250 s
          | Total time for EV reorthonormalization      :        0.000 s           0.000 s
          | Total time for density & force components   :      146.841 s         146.846 s
          | Total time for mixing                       :        0.191 s           0.189 s
          | Total time for Hartree multipole update     :        0.297 s           0.296 s
          | Total time for Hartree multipole sum        :       32.352 s          32.354 s
          | Total time for total energy evaluation      :        0.066 s           0.088 s
          | Total time NSC force correction             :        2.201 s           2.201 s
          | Total time for scaled ZORA corrections      :        0.000 s           0.000 s
          | Total time for vdW correction               :        7.788 s           7.791 s
          | Total time for perturbative SOC             :       25.552 s          25.553 s

          Partial memory accounting:
          | Residual value for overall tracked memory usage across tasks:     0.000000 MB (should be 0.000000 MB)
          | Peak values for overall tracked memory usage:
          |   Minimum:      604.970 MB (on task 138 after allocating temp_cmplx_eienvec)
          |   Maximum:     1981.432 MB (on task 187 after allocating temp_cmplx_eienvec)
          |   Average:     1104.184 MB
          | Largest tracked array allocation:
          |   Minimum:      131.973 MB (d_aux_mat on task  49)
          |   Maximum:      435.441 MB (ovlp3fn for atom on task 187)
          |   Average:      222.309 MB
          Note:  These values currently only include a subset of arrays which are explicitly tracked.
          The "true" memory usage will be greater.

          Have a nice day.
------------------------------------------------------------
